
     Program PHONON v.5.0.2 (svn rev. 9392) starts on 31Aug2016 at 10: 2:58 

     This program is part of the open-source Quantum ESPRESSO suite
     for quantum simulation of materials; please cite
         "P. Giannozzi et al., J. Phys.:Condens. Matter 21 395502 (2009);
          URL http://www.quantum-espresso.org", 
     in publications or presentations arising from this work. More details at
     http://www.quantum-espresso.org/quote.php

     Parallel version (MPI), running on     8 processors
     R & G space division:  proc/nbgrp/npool/nimage =       8

     Ultrasoft (Vanderbilt) Pseudopotentials

   Info: using nr1, nr2, nr3 values from input

   Info: using nr1s, nr2s, nr3s values from input

     IMPORTANT: XC functional enforced from input :
     Exchange-correlation      = PBESOL ( 1 410 8 0)
     EXX-fraction              =        0.00
     Any further DFT definition will be discarded
     Please, verify this is what you really want

 
     Parallelization info
     --------------------
     sticks:   dense  smooth     PW     G-vecs:    dense   smooth      PW
     Min         358     215     62                12691     5892     922
     Max         359     216     63                12695     5909     926
     Sum        2869    1723    499               101549    47183    7391
 

     Calculation of q =    0.0000000   0.0000000   0.0000000

                                                                                

     bravais-lattice index     =            2
     lattice parameter (alat)  =      10.2000  a.u.
     unit-cell volume          =     265.3020 (a.u.)^3
     number of atoms/cell      =            2
     number of atomic types    =            1
     kinetic-energy cut-off    =     120.0000  Ry
     charge density cut-off    =     800.0000  Ry
     convergence threshold     =      1.0E-14
     beta                      =       0.7000
     number of iterations used =            4
     Exchange-correlation      = PBESOL ( 1 410 8 0)
     EXX-fraction              =        0.00


     celldm(1)=   10.20000  celldm(2)=    0.00000  celldm(3)=    0.00000
     celldm(4)=    0.00000  celldm(5)=    0.00000  celldm(6)=    0.00000

     crystal axes: (cart. coord. in units of alat)
               a(1) = ( -0.5000  0.0000  0.5000 )  
               a(2) = (  0.0000  0.5000  0.5000 )  
               a(3) = ( -0.5000  0.5000  0.0000 )  

     reciprocal axes: (cart. coord. in units 2 pi/alat)
               b(1) = ( -1.0000 -1.0000  1.0000 )  
               b(2) = (  1.0000  1.0000  1.0000 )  
               b(3) = ( -1.0000  1.0000 -1.0000 )  


     Atoms inside the unit cell: 

   Cartesian axes

     site n.  atom      mass           positions (alat units)
        1        Si  28.0800   tau( 1) = (    0.00000    0.00000    0.00000  )
        2        Si  28.0800   tau( 2) = (    0.25000    0.25000    0.25000  )

     Computing dynamical matrix for 
                    q = (   0.0000000   0.0000000   0.0000000 )
 
     49 Sym.Ops. (with q -> -q+G )


     G cutoff = 2108.2912  (  12692 G-vectors)     FFT grid: ( 72, 72, 72)
     G cutoff = 1264.9747  (   5892 G-vectors)  smooth grid: ( 54, 54, 54)
     number of k points=   145

     PseudoPot. # 1 for Si read from file:
     ./Si.pbesol-n-rrkjus_psl.1.0.0.UPF
     MD5 check sum: a27d932d5f014e321be76d2da0ca8e06
     Pseudo is Ultrasoft + core correction, Zval =  4.0
     Generated using "atomic" code by A. Dal Corso  v.5.1
     Using radial grid of 1141 points,  6 beta functions with: 
                l(1) =   0
                l(2) =   0
                l(3) =   1
                l(4) =   1
                l(5) =   2
                l(6) =   2
     Q(r) pseudized with 0 coefficients 



     Electric field:
     Dielectric constant
     Born effective charges as d Force / d E


     Atomic displacements:
     There are   2 irreducible representations

     Representation     1      3 modes -T_2g G_25' G_5+  To be done

     Representation     2      3 modes -T_1u G_15  G_4-  To be done


 openfilq after openfilq
 initialize_ph exit from openfilq
 enter phq_init 
 phq_init before deallocate aux1
 phq_init aux1 ALLOCATED
 phq_init aux1 ALLOCATED
 phq_init aux1 ALLOCATED
 phq_init aux1 ALLOCATED
 phq_init aux1 ALLOCATED
 phq_init aux1 ALLOCATED
 phq_init aux1 ALLOCATED
 phq_init aux1 ALLOCATED
 phq_init after deallocate aux1
drho dyn00
   1   1
  -0.0788066   0.0000000   0.0000000   0.0000000  -0.0000000   0.0000000
   0.0000000   0.0000000  -0.0788066   0.0000000  -0.0000000   0.0000000
  -0.0000000   0.0000000  -0.0000000   0.0000000  -0.0788066   0.0000000
   1   2
   0.0489161   0.0000000  -0.0000000   0.0000000   0.0000000   0.0000000
  -0.0000000   0.0000000   0.0489161   0.0000000  -0.0000000   0.0000000
   0.0000000   0.0000000  -0.0000000   0.0000000   0.0489161   0.0000000
   2   1
   0.0489161   0.0000000  -0.0000000   0.0000000   0.0000000   0.0000000
  -0.0000000   0.0000000   0.0489161   0.0000000  -0.0000000   0.0000000
   0.0000000   0.0000000  -0.0000000   0.0000000   0.0489161   0.0000000
   2   2
  -0.0788066   0.0000000   0.0000000   0.0000000   0.0000000   0.0000000
   0.0000000   0.0000000  -0.0788066   0.0000000   0.0000000   0.0000000
   0.0000000   0.0000000   0.0000000   0.0000000  -0.0788066   0.0000000

     Alpha used in Ewald sum =   2.8000
dynmat0 dyn
   1   1
   6.6468064   0.0000000   0.0000000   0.0000000   0.0000000   0.0000000
   0.0000000   0.0000000   6.6468064   0.0000000  -0.0000000   0.0000000
   0.0000000   0.0000000  -0.0000000   0.0000000   6.6468064   0.0000000
   1   2
  -0.5024584   0.0000000   0.0000000   0.0000000   0.0000000   0.0000000
   0.0000000   0.0000000  -0.5024584   0.0000000  -0.0000000   0.0000000
  -0.0000000   0.0000000  -0.0000000   0.0000000  -0.5024584   0.0000000
   2   1
  -0.5024584   0.0000000   0.0000000   0.0000000   0.0000000   0.0000000
   0.0000000   0.0000000  -0.5024584   0.0000000  -0.0000000   0.0000000
   0.0000000   0.0000000   0.0000000   0.0000000  -0.5024584   0.0000000
   2   2
   6.6468064   0.0000000   0.0000000   0.0000000   0.0000000   0.0000000
   0.0000000   0.0000000   6.6468064   0.0000000  -0.0000000   0.0000000
   0.0000000   0.0000000  -0.0000000   0.0000000   6.6468064   0.0000000
 phq_init dopo call dynmat0_new
 initialize_ph esce da phq_init
     PHONON       :    11.84s CPU        12.27s WALL


     Electric Fields Calculation
