
     Program PWSCF v.5.0.2 (svn rev. 9392) starts on 31Aug2016 at 11: 5: 6 

     This program is part of the open-source Quantum ESPRESSO suite
     for quantum simulation of materials; please cite
         "P. Giannozzi et al., J. Phys.:Condens. Matter 21 395502 (2009);
          URL http://www.quantum-espresso.org", 
     in publications or presentations arising from this work. More details at
     http://www.quantum-espresso.org/quote.php

     Parallel version (MPI), running on     8 processors
     R & G space division:  proc/nbgrp/npool/nimage =       8

     Current dimensions of program PWSCF are:
     Max number of different atomic species (ntypx) = 10
     Max number of k-points (npk) =  40000
     Max angular momentum in pseudopotentials (lmaxx) =  3
     Waiting for input...
     Reading input from standard input

     Subspace diagonalization in iterative solution of the eigenvalue problem:
     a serial algorithm will be used

 
     Parallelization info
     --------------------
     sticks:   dense  smooth     PW     G-vecs:    dense   smooth      PW
     Min         215     215     62                 5897     5897     922
     Max         216     216     63                 5900     5900     926
     Sum        1723    1723    499                47183    47183    7391
 


     bravais-lattice index     =            2
     lattice parameter (alat)  =      10.2000  a.u.
     unit-cell volume          =     265.3020 (a.u.)^3
     number of atoms/cell      =            2
     number of atomic types    =            1
     number of electrons       =         8.00
     number of Kohn-Sham states=            4
     kinetic-energy cutoff     =     120.0000  Ry
     charge density cutoff     =     480.0000  Ry
     convergence threshold     =      1.0E-08
     mixing beta               =       0.7000
     number of iterations used =            8  plain     mixing
     Exchange-correlation      = PBESOL ( 1 410 8 0)
     EXX-fraction              =        0.00

     celldm(1)=  10.200000  celldm(2)=   0.000000  celldm(3)=   0.000000
     celldm(4)=   0.000000  celldm(5)=   0.000000  celldm(6)=   0.000000

     crystal axes: (cart. coord. in units of alat)
               a(1) = (  -0.500000   0.000000   0.500000 )  
               a(2) = (   0.000000   0.500000   0.500000 )  
               a(3) = (  -0.500000   0.500000   0.000000 )  

     reciprocal axes: (cart. coord. in units 2 pi/alat)
               b(1) = ( -1.000000 -1.000000  1.000000 )  
               b(2) = (  1.000000  1.000000  1.000000 )  
               b(3) = ( -1.000000  1.000000 -1.000000 )  


     PseudoPot. # 1 for Si read from file:
     ./Si.pbesol-n-rrkjus_psl.1.0.0.UPF
     MD5 check sum: 8befc6ca08d45158dbd3e93582c1ea6d
     Pseudo is Ultrasoft + core correction, Zval =  4.0
     Generated using "atomic" code by A. Dal Corso  v.5.1
     Using radial grid of 1141 points,  6 beta functions with: 
                l(1) =   0
                l(2) =   0
                l(3) =   1
                l(4) =   1
                l(5) =   2
                l(6) =   2
     Q(r) pseudized with 0 coefficients 


     atomic species   valence    mass     pseudopotential
        Si             4.00    28.08600     Si( 1.00)

     24 Sym. Ops. (no inversion) found
          (note: 24 additional sym.ops. were found but ignored
           their fractional translations are incommensurate with FFT grid)


   Cartesian axes

     site n.     atom                  positions (alat units)
         1           Si  tau(   1) = (   0.0000000   0.0000000   0.0000000  )
         2           Si  tau(   2) = (   0.2500000   0.2500000   0.2500000  )

     number of k points=    72
                       cart. coord. in units 2pi/alat
        k(    1) = (   0.0000000   0.0000000   0.0000000), wk =   0.0011574
        k(    2) = (  -0.0833333   0.0833333  -0.0833333), wk =   0.0092593
        k(    3) = (  -0.1666667   0.1666667  -0.1666667), wk =   0.0092593
        k(    4) = (  -0.2500000   0.2500000  -0.2500000), wk =   0.0092593
        k(    5) = (  -0.3333333   0.3333333  -0.3333333), wk =   0.0092593
        k(    6) = (  -0.4166667   0.4166667  -0.4166667), wk =   0.0092593
        k(    7) = (   0.5000000  -0.5000000   0.5000000), wk =   0.0046296
        k(    8) = (   0.0000000   0.1666667   0.0000000), wk =   0.0069444
        k(    9) = (  -0.0833333   0.2500000  -0.0833333), wk =   0.0277778
        k(   10) = (  -0.1666667   0.3333333  -0.1666667), wk =   0.0277778
        k(   11) = (  -0.2500000   0.4166667  -0.2500000), wk =   0.0277778
        k(   12) = (  -0.3333333   0.5000000  -0.3333333), wk =   0.0277778
        k(   13) = (   0.5833333  -0.4166667   0.5833333), wk =   0.0277778
        k(   14) = (   0.5000000  -0.3333333   0.5000000), wk =   0.0277778
        k(   15) = (   0.4166667  -0.2500000   0.4166667), wk =   0.0277778
        k(   16) = (   0.3333333  -0.1666667   0.3333333), wk =   0.0277778
        k(   17) = (   0.2500000  -0.0833333   0.2500000), wk =   0.0277778
        k(   18) = (   0.1666667  -0.0000000   0.1666667), wk =   0.0138889
        k(   19) = (   0.0000000   0.3333333   0.0000000), wk =   0.0069444
        k(   20) = (  -0.0833333   0.4166667  -0.0833333), wk =   0.0277778
        k(   21) = (  -0.1666667   0.5000000  -0.1666667), wk =   0.0277778
        k(   22) = (  -0.2500000   0.5833333  -0.2500000), wk =   0.0277778
        k(   23) = (   0.6666667  -0.3333333   0.6666667), wk =   0.0277778
        k(   24) = (   0.5833333  -0.2500000   0.5833333), wk =   0.0277778
        k(   25) = (   0.5000000  -0.1666667   0.5000000), wk =   0.0277778
        k(   26) = (   0.4166667  -0.0833333   0.4166667), wk =   0.0277778
        k(   27) = (   0.3333333   0.0000000   0.3333333), wk =   0.0138889
        k(   28) = (   0.0000000   0.5000000   0.0000000), wk =   0.0069444
        k(   29) = (  -0.0833333   0.5833333  -0.0833333), wk =   0.0277778
        k(   30) = (  -0.1666667   0.6666667  -0.1666667), wk =   0.0277778
        k(   31) = (   0.7500000  -0.2500000   0.7500000), wk =   0.0277778
        k(   32) = (   0.6666667  -0.1666667   0.6666667), wk =   0.0277778
        k(   33) = (   0.5833333  -0.0833333   0.5833333), wk =   0.0277778
        k(   34) = (   0.5000000   0.0000000   0.5000000), wk =   0.0138889
        k(   35) = (   0.0000000   0.6666667   0.0000000), wk =   0.0069444
        k(   36) = (  -0.0833333   0.7500000  -0.0833333), wk =   0.0277778
        k(   37) = (   0.8333333  -0.1666667   0.8333333), wk =   0.0277778
        k(   38) = (   0.7500000  -0.0833333   0.7500000), wk =   0.0277778
        k(   39) = (   0.6666667  -0.0000000   0.6666667), wk =   0.0138889
        k(   40) = (   0.0000000   0.8333333   0.0000000), wk =   0.0069444
        k(   41) = (   0.9166667  -0.0833333   0.9166667), wk =   0.0277778
        k(   42) = (   0.8333333   0.0000000   0.8333333), wk =   0.0138889
        k(   43) = (   0.0000000  -1.0000000   0.0000000), wk =   0.0034722
        k(   44) = (  -0.1666667   0.3333333   0.0000000), wk =   0.0277778
        k(   45) = (  -0.2500000   0.4166667  -0.0833333), wk =   0.0555556
        k(   46) = (  -0.3333333   0.5000000  -0.1666667), wk =   0.0555556
        k(   47) = (   0.5833333  -0.4166667   0.7500000), wk =   0.0555556
        k(   48) = (   0.5000000  -0.3333333   0.6666667), wk =   0.0277778
        k(   49) = (  -0.1666667   0.5000000   0.0000000), wk =   0.0277778
        k(   50) = (  -0.2500000   0.5833333  -0.0833333), wk =   0.0555556
        k(   51) = (   0.6666667  -0.3333333   0.8333333), wk =   0.0555556
        k(   52) = (   0.5833333  -0.2500000   0.7500000), wk =   0.0555556
        k(   53) = (   0.5000000  -0.1666667   0.6666667), wk =   0.0555556
        k(   54) = (   0.4166667  -0.0833333   0.5833333), wk =   0.0555556
        k(   55) = (   0.3333333   0.0000000   0.5000000), wk =   0.0277778
        k(   56) = (  -0.1666667   0.6666667  -0.0000000), wk =   0.0277778
        k(   57) = (   0.7500000  -0.2500000   0.9166667), wk =   0.0555556
        k(   58) = (   0.6666667  -0.1666667   0.8333333), wk =   0.0555556
        k(   59) = (   0.5833333  -0.0833333   0.7500000), wk =   0.0555556
        k(   60) = (   0.5000000   0.0000000   0.6666667), wk =   0.0277778
        k(   61) = (   0.8333333  -0.1666667   1.0000000), wk =   0.0277778
        k(   62) = (   0.7500000  -0.0833333   0.9166667), wk =   0.0555556
        k(   63) = (   0.6666667   0.0000000   0.8333333), wk =   0.0277778
        k(   64) = (  -0.1666667  -1.0000000  -0.0000000), wk =   0.0138889
        k(   65) = (   0.6666667  -0.3333333   1.0000000), wk =   0.0277778
        k(   66) = (   0.5833333  -0.2500000   0.9166667), wk =   0.0555556
        k(   67) = (   0.5000000  -0.1666667   0.8333333), wk =   0.0277778
        k(   68) = (   0.6666667  -0.1666667   1.0000000), wk =   0.0277778
        k(   69) = (   0.5833333  -0.0833333   0.9166667), wk =   0.0555556
        k(   70) = (   0.5000000   0.0000000   0.8333333), wk =   0.0277778
        k(   71) = (  -0.3333333  -1.0000000   0.0000000), wk =   0.0138889
        k(   72) = (  -0.5000000  -1.0000000   0.0000000), wk =   0.0069444

     Dense  grid:    47183 G-vectors     FFT dimensions: (  54,  54,  54)

     Largest allocated arrays     est. size (Mb)     dimensions
        Kohn-Sham Wavefunctions         0.05 Mb     (    748,    4)
        NL pseudopotentials             0.41 Mb     (    748,   36)
        Each V/rho on FFT grid          0.31 Mb     (  20412)
        Each G-vector array             0.05 Mb     (   5900)
        G-vector shells                 0.00 Mb     (    418)
     Largest temporary arrays     est. size (Mb)     dimensions
        Auxiliary wavefunctions         0.18 Mb     (    748,   16)
        Each subspace H/S matrix        0.00 Mb     (  16,  16)
        Each <psi_i|beta_j> matrix      0.00 Mb     (     36,    4)
        Arrays for rho mixing           2.49 Mb     (  20412,   8)

     Initial potential from superposition of free atoms

     starting charge    7.99892, renormalised to    8.00000
     Starting wfc are    8 randomized atomic wfcs

     total cpu time spent up to now is        2.1 secs

     per-process dynamical memory:    14.2 Mb

     Self-consistent Calculation

     iteration #  1     ecut=   120.00 Ry     beta=0.70
     Davidson diagonalization with overlap
     ethr =  1.00E-02,  avg # of iterations =  2.0

     Threshold (ethr) on eigenvalues was too large:
     Diagonalizing with lowered threshold

     Davidson diagonalization with overlap
     ethr =  7.00E-04,  avg # of iterations =  1.4

     total cpu time spent up to now is        6.8 secs

     total energy              =     -22.67437267 Ry
     Harris-Foulkes estimate   =     -22.69250983 Ry
     estimated scf accuracy    <       0.05552294 Ry

     iteration #  2     ecut=   120.00 Ry     beta=0.70
     Davidson diagonalization with overlap
     ethr =  6.94E-04,  avg # of iterations =  1.0

     total cpu time spent up to now is        8.9 secs

     total energy              =     -22.67677417 Ry
     Harris-Foulkes estimate   =     -22.67717940 Ry
     estimated scf accuracy    <       0.00221742 Ry

     iteration #  3     ecut=   120.00 Ry     beta=0.70
     Davidson diagonalization with overlap
     ethr =  2.77E-05,  avg # of iterations =  3.0

     total cpu time spent up to now is       12.0 secs

     total energy              =     -22.67756891 Ry
     Harris-Foulkes estimate   =     -22.67765871 Ry
     estimated scf accuracy    <       0.00016408 Ry

     iteration #  4     ecut=   120.00 Ry     beta=0.70
     Davidson diagonalization with overlap
     ethr =  2.05E-06,  avg # of iterations =  2.0

     total cpu time spent up to now is       15.4 secs

     total energy              =     -22.67758970 Ry
     Harris-Foulkes estimate   =     -22.67763001 Ry
     estimated scf accuracy    <       0.00007939 Ry

     iteration #  5     ecut=   120.00 Ry     beta=0.70
     Davidson diagonalization with overlap
     ethr =  9.92E-07,  avg # of iterations =  2.0

     total cpu time spent up to now is       18.1 secs

     total energy              =     -22.67759904 Ry
     Harris-Foulkes estimate   =     -22.67759903 Ry
     estimated scf accuracy    <       0.00000002 Ry

     iteration #  6     ecut=   120.00 Ry     beta=0.70
     Davidson diagonalization with overlap
     ethr =  2.68E-10,  avg # of iterations =  4.7

     total cpu time spent up to now is       22.2 secs

     total energy              =     -22.67759935 Ry
     Harris-Foulkes estimate   =     -22.67759937 Ry
     estimated scf accuracy    <       0.00000007 Ry

     iteration #  7     ecut=   120.00 Ry     beta=0.70
     Davidson diagonalization with overlap
     ethr =  2.68E-10,  avg # of iterations =  1.7

     total cpu time spent up to now is       24.6 secs

     End of self-consistent calculation

          k = 0.0000 0.0000 0.0000 (  5961 PWs)   bands (ev):

    -5.7673   6.3492   6.3492   6.3492

          k =-0.0833 0.0833-0.0833 (  5907 PWs)   bands (ev):

    -5.6745   5.4797   6.2005   6.2005

          k =-0.1667 0.1667-0.1667 (  5907 PWs)   bands (ev):

    -5.3991   3.9341   5.8862   5.8862

          k =-0.2500 0.2500-0.2500 (  5913 PWs)   bands (ev):

    -4.9515   2.3612   5.5717   5.5717

          k =-0.3333 0.3333-0.3333 (  5888 PWs)   bands (ev):

    -4.3607   0.9267   5.3283   5.3283

          k =-0.4167 0.4167-0.4167 (  5894 PWs)   bands (ev):

    -3.7211  -0.2308   5.1789   5.1789

          k = 0.5000-0.5000 0.5000 (  5900 PWs)   bands (ev):

    -3.3722  -0.7539   5.1288   5.1288

          k = 0.0000 0.1667 0.0000 (  5901 PWs)   bands (ev):

    -5.6435   5.6652   5.9021   5.9021

          k =-0.0833 0.2500-0.0833 (  5904 PWs)   bands (ev):

    -5.4285   4.4046   5.5284   5.7333

          k =-0.1667 0.3333-0.1667 (  5905 PWs)   bands (ev):

    -5.0368   2.8741   5.2098   5.4027

          k =-0.2500 0.4167-0.2500 (  5905 PWs)   bands (ev):

    -4.4888   1.4091   4.9981   5.0425

          k =-0.3333 0.5000-0.3333 (  5890 PWs)   bands (ev):

    -3.8459   0.1506   4.7402   4.9095

          k = 0.5833-0.4167 0.5833 (  5888 PWs)   bands (ev):

    -3.3357  -0.6438   4.5298   4.9440

          k = 0.5000-0.3333 0.5000 (  5890 PWs)   bands (ev):

    -3.4621  -0.4595   4.4298   5.0923

          k = 0.4167-0.2500 0.4167 (  5898 PWs)   bands (ev):

    -4.0642   0.5402   4.4539   5.3382

          k = 0.3333-0.1667 0.3333 (  5903 PWs)   bands (ev):

    -4.6876   1.8832   4.6125   5.6553

          k = 0.2500-0.0833 0.2500 (  5906 PWs)   bands (ev):

    -5.1868   3.3713   4.9180   5.9918

          k = 0.1667-0.0000 0.1667 (  5903 PWs)   bands (ev):

    -5.5207   4.7488   5.4502   6.2317

          k = 0.0000 0.3333 0.0000 (  5914 PWs)   bands (ev):

    -5.2740   4.3211   5.1183   5.1183

          k =-0.0833 0.4167-0.0833 (  5903 PWs)   bands (ev):

    -4.9404   3.2086   4.7680   4.7771

          k =-0.1667 0.5000-0.1667 (  5894 PWs)   bands (ev):

    -4.4419   1.8662   4.3060   4.5555

          k =-0.2500 0.5833-0.2500 (  5884 PWs)   bands (ev):

    -3.8188   0.6008   3.8574   4.4721

          k = 0.6667-0.3333 0.6667 (  5888 PWs)   bands (ev):

    -3.2154  -0.3618   3.5043   4.5295

          k = 0.5833-0.2500 0.5833 (  5891 PWs)   bands (ev):

    -3.0954  -0.5283   3.2828   4.7198

          k = 0.5000-0.1667 0.5000 (  5891 PWs)   bands (ev):

    -3.6136   0.2559   3.2196   5.0236

          k = 0.4167-0.0833 0.4167 (  5902 PWs)   bands (ev):

    -4.2550   1.4341   3.3584   5.4022

          k = 0.3333 0.0000 0.3333 (  5915 PWs)   bands (ev):

    -4.7989   2.6012   3.8531   5.7765

          k = 0.0000 0.5000 0.0000 (  5862 PWs)   bands (ev):

    -4.6647   2.8302   4.4063   4.4063

          k =-0.0833 0.5833-0.0833 (  5891 PWs)   bands (ev):

    -4.2192   1.9033   3.9247   4.1555

          k =-0.1667 0.6667-0.1667 (  5888 PWs)   bands (ev):

    -3.6307   0.8496   3.2718   4.0475

          k = 0.7500-0.2500 0.7500 (  5882 PWs)   bands (ev):

    -2.9883  -0.1042   2.7108   4.0885

          k = 0.6667-0.1667 0.6667 (  5873 PWs)   bands (ev):

    -2.6500  -0.5364   2.3369   4.2741

          k = 0.5833-0.0833 0.5833 (  5883 PWs)   bands (ev):

    -3.0395  -0.0241   2.2085   4.5876

          k = 0.5000 0.0000 0.5000 (  5881 PWs)   bands (ev):

    -3.6793   0.8200   2.4741   4.9912

          k = 0.0000 0.6667 0.0000 (  5866 PWs)   bands (ev):

    -3.8264   1.3158   3.8685   3.8685

          k =-0.0833 0.7500-0.0833 (  5882 PWs)   bands (ev):

    -3.2804   0.5168   3.3595   3.7236

          k = 0.8333-0.1667 0.8333 (  5884 PWs)   bands (ev):

    -2.6354  -0.2663   2.5988   3.7308

          k = 0.7500-0.0833 0.7500 (  5877 PWs)   bands (ev):

    -2.1476  -0.7734   1.9971   3.8888

          k = 0.6667-0.0000 0.6667 (  5902 PWs)   bands (ev):

    -2.4253  -0.4840   1.7878   4.1850

          k = 0.0000 0.8333 0.0000 (  5870 PWs)   bands (ev):

    -2.7765  -0.1607   3.5375   3.5375

          k = 0.9167-0.0833 0.9167 (  5872 PWs)   bands (ev):

    -2.1495  -0.8608   3.0813   3.5035

          k = 0.8333 0.0000 0.8333 (  5878 PWs)   bands (ev):

    -1.6756  -1.2762   2.3764   3.6236

          k = 0.0000-1.0000 0.0000 (  5874 PWs)   bands (ev):

    -1.5418  -1.5418   3.4260   3.4260

          k =-0.1667 0.3333 0.0000 (  5910 PWs)   bands (ev):

    -5.1545   3.6059   4.6569   5.6297

          k =-0.2500 0.4167-0.0833 (  5916 PWs)   bands (ev):

    -4.7090   2.3391   4.1167   5.3466

          k =-0.3333 0.5000-0.1667 (  5894 PWs)   bands (ev):

    -4.1202   1.0062   3.8491   5.0090

          k = 0.5833-0.4167 0.7500 (  5890 PWs)   bands (ev):

    -3.4796  -0.1131   3.7246   4.7542

          k = 0.5000-0.3333 0.6667 (  5894 PWs)   bands (ev):

    -3.1266  -0.6295   3.6904   4.6592

          k =-0.1667 0.5000 0.0000 (  5909 PWs)   bands (ev):

    -4.5516   2.4109   3.9447   4.6800

          k =-0.2500 0.5833-0.0833 (  5896 PWs)   bands (ev):

    -4.0072   1.3376   3.3964   4.3795

          k = 0.6667-0.3333 0.8333 (  5889 PWs)   bands (ev):

    -3.3649   0.2529   3.0374   4.1604

          k = 0.5833-0.2500 0.7500 (  5889 PWs)   bands (ev):

    -2.8491  -0.4793   2.7873   4.1417

          k = 0.5000-0.1667 0.6667 (  5882 PWs)   bands (ev):

    -2.9902  -0.2851   2.6624   4.3207

          k = 0.4167-0.0833 0.5833 (  5888 PWs)   bands (ev):

    -3.5997   0.6213   2.7296   4.6488

          k = 0.3333 0.0000 0.5000 (  5886 PWs)   bands (ev):

    -4.2173   1.6240   3.1484   5.0445

          k =-0.1667 0.6667-0.0000 (  5884 PWs)   bands (ev):

    -3.7248   1.1361   3.4238   3.8676

          k = 0.7500-0.2500 0.9167 (  5883 PWs)   bands (ev):

    -3.1046   0.2848   2.8137   3.6413

          k = 0.6667-0.1667 0.8333 (  5877 PWs)   bands (ev):

    -2.4963  -0.4511   2.2747   3.6501

          k = 0.5833-0.0833 0.7500 (  5887 PWs)   bands (ev):

    -2.4197  -0.5271   1.9746   3.8552

          k = 0.5000 0.0000 0.6667 (  5885 PWs)   bands (ev):

    -2.9741   0.0782   2.0621   4.2116

          k = 0.8333-0.1667 1.0000 (  5877 PWs)   bands (ev):

    -2.6959  -0.1957   3.1338   3.3359

          k = 0.7500-0.0833 0.9167 (  5881 PWs)   bands (ev):

    -2.0501  -0.8498   2.4733   3.2905

          k = 0.6667 0.0000 0.8333 (  5878 PWs)   bands (ev):

    -1.8829  -0.9712   1.9534   3.4935

          k =-0.1667-1.0000-0.0000 (  5868 PWs)   bands (ev):

    -1.5006  -1.5005   3.0977   3.0977

          k = 0.6667-0.3333 1.0000 (  5895 PWs)   bands (ev):

    -3.4297   0.6656   2.6646   3.9819

          k = 0.5833-0.2500 0.9167 (  5885 PWs)   bands (ev):

    -2.7881  -0.1223   2.3099   3.6307

          k = 0.5000-0.1667 0.8333 (  5872 PWs)   bands (ev):

    -2.4139  -0.5678   2.2172   3.4961

          k = 0.6667-0.1667 1.0000 (  5897 PWs)   bands (ev):

    -2.4730  -0.3403   2.4585   3.0937

          k = 0.5833-0.0833 0.9167 (  5888 PWs)   bands (ev):

    -1.9331  -0.8575   2.1276   2.9341

          k = 0.5000 0.0000 0.8333 (  5887 PWs)   bands (ev):

    -2.1693  -0.6251   1.9983   3.1673

          k =-0.3333-1.0000 0.0000 (  5888 PWs)   bands (ev):

    -1.4116  -1.4116   2.5831   2.5831

          k =-0.5000-1.0000 0.0000 (  5876 PWs)   bands (ev):

    -1.3634  -1.3634   2.3638   2.3638

!    total energy              =     -22.67759935 Ry
     Harris-Foulkes estimate   =     -22.67759935 Ry
     estimated scf accuracy    <          8.5E-09 Ry

     The total energy is the sum of the following terms:

     one-electron contribution =       5.31999366 Ry
     hartree contribution      =       1.06362193 Ry
     xc contribution           =     -12.16145637 Ry
     ewald contribution        =     -16.89975857 Ry

     convergence has been achieved in   7 iterations

     Forces acting on atoms (Ry/au):

     atom    1 type  1   force =     0.00000000    0.00000000    0.00000000
     atom    2 type  1   force =     0.00000000    0.00000000    0.00000000

     Total force =     0.000000     Total SCF correction =     0.000000


     entering subroutine stress ...

          total   stress  (Ry/bohr**3)                   (kbar)     P=   19.30
   0.00013120  -0.00000000  -0.00000000         19.30     -0.00     -0.00
  -0.00000000   0.00013120   0.00000000         -0.00     19.30      0.00
   0.00000000   0.00000000   0.00013120          0.00      0.00     19.30


     Writing output data file si.save
 
     init_run     :      1.65s CPU      1.70s WALL (       1 calls)
     electrons    :     21.90s CPU     22.53s WALL (       1 calls)
     forces       :      0.31s CPU      0.32s WALL (       1 calls)
     stress       :      0.90s CPU      0.91s WALL (       1 calls)

     Called by init_run:
     wfcinit      :      1.27s CPU      1.30s WALL (       1 calls)
     potinit      :      0.03s CPU      0.03s WALL (       1 calls)

     Called by electrons:
     c_bands      :     17.93s CPU     18.29s WALL (       8 calls)
     sum_band     :      3.25s CPU      3.34s WALL (       8 calls)
     v_of_rho     :      0.19s CPU      0.19s WALL (       8 calls)
     newd         :      0.51s CPU      0.52s WALL (       8 calls)
     mix_rho      :      0.02s CPU      0.02s WALL (       8 calls)

     Called by c_bands:
     init_us_2    :      0.62s CPU      0.62s WALL (    1368 calls)
     cegterg      :     15.22s CPU     15.51s WALL (     576 calls)

     Called by *egterg:
     h_psi        :     14.76s CPU     15.02s WALL (    1927 calls)
     s_psi        :      0.41s CPU      0.38s WALL (    1927 calls)
     g_psi        :      0.05s CPU      0.06s WALL (    1279 calls)
     cdiaghg      :      0.28s CPU      0.28s WALL (    1783 calls)

     Called by h_psi:
     add_vuspsi   :      0.39s CPU      0.40s WALL (    1927 calls)

     General routines
     calbec       :      1.00s CPU      0.98s WALL (    2647 calls)
     fft          :      0.16s CPU      0.16s WALL (     131 calls)
     fftw         :     14.15s CPU     14.57s WALL (   16864 calls)
     davcio       :      0.10s CPU      0.11s WALL (    1944 calls)
 
     Parallel routines
     fft_scatter  :      5.38s CPU      5.43s WALL (   16995 calls)
 
     PWSCF        :    25.34s CPU        26.11s WALL

 
   This run was terminated on:  11: 5:32  31Aug2016            

=------------------------------------------------------------------------------=
   JOB DONE.
=------------------------------------------------------------------------------=
