
     Program PWSCF v.5.0.2 (svn rev. 9392) starts on 31Aug2016 at 11: 6:56 

     This program is part of the open-source Quantum ESPRESSO suite
     for quantum simulation of materials; please cite
         "P. Giannozzi et al., J. Phys.:Condens. Matter 21 395502 (2009);
          URL http://www.quantum-espresso.org", 
     in publications or presentations arising from this work. More details at
     http://www.quantum-espresso.org/quote.php

     Parallel version (MPI), running on     8 processors
     R & G space division:  proc/nbgrp/npool/nimage =       8

     Current dimensions of program PWSCF are:
     Max number of different atomic species (ntypx) = 10
     Max number of k-points (npk) =  40000
     Max angular momentum in pseudopotentials (lmaxx) =  3
     Waiting for input...
     Reading input from standard input

     Subspace diagonalization in iterative solution of the eigenvalue problem:
     a serial algorithm will be used

 
     Parallelization info
     --------------------
     sticks:   dense  smooth     PW     G-vecs:    dense   smooth      PW
     Min         215     215     62                 5897     5897     922
     Max         216     216     63                 5900     5900     926
     Sum        1723    1723    499                47183    47183    7391
 


     bravais-lattice index     =            2
     lattice parameter (alat)  =      10.2000  a.u.
     unit-cell volume          =     265.3020 (a.u.)^3
     number of atoms/cell      =            2
     number of atomic types    =            1
     number of electrons       =         8.00
     number of Kohn-Sham states=            4
     kinetic-energy cutoff     =     120.0000  Ry
     charge density cutoff     =     480.0000  Ry
     convergence threshold     =      1.0E-08
     mixing beta               =       0.7000
     number of iterations used =            8  plain     mixing
     Exchange-correlation      = PBESOL ( 1 410 8 0)
     EXX-fraction              =        0.00

     celldm(1)=  10.200000  celldm(2)=   0.000000  celldm(3)=   0.000000
     celldm(4)=   0.000000  celldm(5)=   0.000000  celldm(6)=   0.000000

     crystal axes: (cart. coord. in units of alat)
               a(1) = (  -0.500000   0.000000   0.500000 )  
               a(2) = (   0.000000   0.500000   0.500000 )  
               a(3) = (  -0.500000   0.500000   0.000000 )  

     reciprocal axes: (cart. coord. in units 2 pi/alat)
               b(1) = ( -1.000000 -1.000000  1.000000 )  
               b(2) = (  1.000000  1.000000  1.000000 )  
               b(3) = ( -1.000000  1.000000 -1.000000 )  


     PseudoPot. # 1 for Si read from file:
     ./Si.pbesol-n-rrkjus_psl.1.0.0.UPF
     MD5 check sum: 8befc6ca08d45158dbd3e93582c1ea6d
     Pseudo is Ultrasoft + core correction, Zval =  4.0
     Generated using "atomic" code by A. Dal Corso  v.5.1
     Using radial grid of 1141 points,  6 beta functions with: 
                l(1) =   0
                l(2) =   0
                l(3) =   1
                l(4) =   1
                l(5) =   2
                l(6) =   2
     Q(r) pseudized with 0 coefficients 


     atomic species   valence    mass     pseudopotential
        Si             4.00    28.08600     Si( 1.00)

     24 Sym. Ops. (no inversion) found
          (note: 24 additional sym.ops. were found but ignored
           their fractional translations are incommensurate with FFT grid)


   Cartesian axes

     site n.     atom                  positions (alat units)
         1           Si  tau(   1) = (   0.0000000   0.0000000   0.0000000  )
         2           Si  tau(   2) = (   0.2500000   0.2500000   0.2500000  )

     number of k points=    47
                       cart. coord. in units 2pi/alat
        k(    1) = (   0.0000000   0.0000000   0.0000000), wk =   0.0020000
        k(    2) = (  -0.1000000   0.1000000  -0.1000000), wk =   0.0160000
        k(    3) = (  -0.2000000   0.2000000  -0.2000000), wk =   0.0160000
        k(    4) = (  -0.3000000   0.3000000  -0.3000000), wk =   0.0160000
        k(    5) = (  -0.4000000   0.4000000  -0.4000000), wk =   0.0160000
        k(    6) = (   0.5000000  -0.5000000   0.5000000), wk =   0.0080000
        k(    7) = (   0.0000000   0.2000000   0.0000000), wk =   0.0120000
        k(    8) = (  -0.1000000   0.3000000  -0.1000000), wk =   0.0480000
        k(    9) = (  -0.2000000   0.4000000  -0.2000000), wk =   0.0480000
        k(   10) = (  -0.3000000   0.5000000  -0.3000000), wk =   0.0480000
        k(   11) = (   0.6000000  -0.4000000   0.6000000), wk =   0.0480000
        k(   12) = (   0.5000000  -0.3000000   0.5000000), wk =   0.0480000
        k(   13) = (   0.4000000  -0.2000000   0.4000000), wk =   0.0480000
        k(   14) = (   0.3000000  -0.1000000   0.3000000), wk =   0.0480000
        k(   15) = (   0.2000000   0.0000000   0.2000000), wk =   0.0240000
        k(   16) = (   0.0000000   0.4000000   0.0000000), wk =   0.0120000
        k(   17) = (  -0.1000000   0.5000000  -0.1000000), wk =   0.0480000
        k(   18) = (  -0.2000000   0.6000000  -0.2000000), wk =   0.0480000
        k(   19) = (   0.7000000  -0.3000000   0.7000000), wk =   0.0480000
        k(   20) = (   0.6000000  -0.2000000   0.6000000), wk =   0.0480000
        k(   21) = (   0.5000000  -0.1000000   0.5000000), wk =   0.0480000
        k(   22) = (   0.4000000   0.0000000   0.4000000), wk =   0.0240000
        k(   23) = (   0.0000000   0.6000000   0.0000000), wk =   0.0120000
        k(   24) = (  -0.1000000   0.7000000  -0.1000000), wk =   0.0480000
        k(   25) = (   0.8000000  -0.2000000   0.8000000), wk =   0.0480000
        k(   26) = (   0.7000000  -0.1000000   0.7000000), wk =   0.0480000
        k(   27) = (   0.6000000  -0.0000000   0.6000000), wk =   0.0240000
        k(   28) = (   0.0000000   0.8000000   0.0000000), wk =   0.0120000
        k(   29) = (   0.9000000  -0.1000000   0.9000000), wk =   0.0480000
        k(   30) = (   0.8000000   0.0000000   0.8000000), wk =   0.0240000
        k(   31) = (   0.0000000  -1.0000000   0.0000000), wk =   0.0060000
        k(   32) = (  -0.2000000   0.4000000   0.0000000), wk =   0.0480000
        k(   33) = (  -0.3000000   0.5000000  -0.1000000), wk =   0.0960000
        k(   34) = (   0.6000000  -0.4000000   0.8000000), wk =   0.0960000
        k(   35) = (   0.5000000  -0.3000000   0.7000000), wk =   0.0480000
        k(   36) = (  -0.2000000   0.6000000   0.0000000), wk =   0.0480000
        k(   37) = (   0.7000000  -0.3000000   0.9000000), wk =   0.0960000
        k(   38) = (   0.6000000  -0.2000000   0.8000000), wk =   0.0960000
        k(   39) = (   0.5000000  -0.1000000   0.7000000), wk =   0.0960000
        k(   40) = (   0.4000000   0.0000000   0.6000000), wk =   0.0480000
        k(   41) = (   0.8000000  -0.2000000   1.0000000), wk =   0.0480000
        k(   42) = (   0.7000000  -0.1000000   0.9000000), wk =   0.0960000
        k(   43) = (   0.6000000   0.0000000   0.8000000), wk =   0.0480000
        k(   44) = (  -0.2000000  -1.0000000   0.0000000), wk =   0.0240000
        k(   45) = (   0.6000000  -0.2000000   1.0000000), wk =   0.0480000
        k(   46) = (   0.5000000  -0.1000000   0.9000000), wk =   0.0480000
        k(   47) = (  -0.4000000  -1.0000000   0.0000000), wk =   0.0240000

     Dense  grid:    47183 G-vectors     FFT dimensions: (  54,  54,  54)

     Largest allocated arrays     est. size (Mb)     dimensions
        Kohn-Sham Wavefunctions         0.05 Mb     (    745,    4)
        NL pseudopotentials             0.41 Mb     (    745,   36)
        Each V/rho on FFT grid          0.31 Mb     (  20412)
        Each G-vector array             0.05 Mb     (   5900)
        G-vector shells                 0.00 Mb     (    418)
     Largest temporary arrays     est. size (Mb)     dimensions
        Auxiliary wavefunctions         0.18 Mb     (    745,   16)
        Each subspace H/S matrix        0.00 Mb     (  16,  16)
        Each <psi_i|beta_j> matrix      0.00 Mb     (     36,    4)
        Arrays for rho mixing           2.49 Mb     (  20412,   8)

     Initial potential from superposition of free atoms

     starting charge    7.99892, renormalised to    8.00000
     Starting wfc are    8 randomized atomic wfcs

     total cpu time spent up to now is        1.6 secs

     per-process dynamical memory:    13.8 Mb

     Self-consistent Calculation

     iteration #  1     ecut=   120.00 Ry     beta=0.70
     Davidson diagonalization with overlap
     ethr =  1.00E-02,  avg # of iterations =  2.0

     Threshold (ethr) on eigenvalues was too large:
     Diagonalizing with lowered threshold

     Davidson diagonalization with overlap
     ethr =  7.01E-04,  avg # of iterations =  1.4

     total cpu time spent up to now is        4.8 secs

     total energy              =     -22.67428530 Ry
     Harris-Foulkes estimate   =     -22.69244745 Ry
     estimated scf accuracy    <       0.05557916 Ry

     iteration #  2     ecut=   120.00 Ry     beta=0.70
     Davidson diagonalization with overlap
     ethr =  6.95E-04,  avg # of iterations =  1.0

     total cpu time spent up to now is        6.4 secs

     total energy              =     -22.67674013 Ry
     Harris-Foulkes estimate   =     -22.67713956 Ry
     estimated scf accuracy    <       0.00220062 Ry

     iteration #  3     ecut=   120.00 Ry     beta=0.70
     Davidson diagonalization with overlap
     ethr =  2.75E-05,  avg # of iterations =  3.0

     total cpu time spent up to now is        8.8 secs

     total energy              =     -22.67752194 Ry
     Harris-Foulkes estimate   =     -22.67760754 Ry
     estimated scf accuracy    <       0.00015590 Ry

     iteration #  4     ecut=   120.00 Ry     beta=0.70
     Davidson diagonalization with overlap
     ethr =  1.95E-06,  avg # of iterations =  2.0

     total cpu time spent up to now is       10.9 secs

     total energy              =     -22.67754274 Ry
     Harris-Foulkes estimate   =     -22.67757789 Ry
     estimated scf accuracy    <       0.00006905 Ry

     iteration #  5     ecut=   120.00 Ry     beta=0.70
     Davidson diagonalization with overlap
     ethr =  8.63E-07,  avg # of iterations =  2.0

     total cpu time spent up to now is       12.8 secs

     total energy              =     -22.67755099 Ry
     Harris-Foulkes estimate   =     -22.67755099 Ry
     estimated scf accuracy    <       0.00000003 Ry

     iteration #  6     ecut=   120.00 Ry     beta=0.70
     Davidson diagonalization with overlap
     ethr =  4.25E-10,  avg # of iterations =  4.4

     total cpu time spent up to now is       15.5 secs

     total energy              =     -22.67755126 Ry
     Harris-Foulkes estimate   =     -22.67755127 Ry
     estimated scf accuracy    <       0.00000005 Ry

     iteration #  7     ecut=   120.00 Ry     beta=0.70
     Davidson diagonalization with overlap
     ethr =  4.25E-10,  avg # of iterations =  1.0

     total cpu time spent up to now is       16.9 secs

     total energy              =     -22.67755126 Ry
     Harris-Foulkes estimate   =     -22.67755126 Ry
     estimated scf accuracy    <       0.00000001 Ry

     iteration #  8     ecut=   120.00 Ry     beta=0.70
     Davidson diagonalization with overlap
     ethr =  1.32E-10,  avg # of iterations =  1.6

     total cpu time spent up to now is       18.4 secs

     End of self-consistent calculation

          k = 0.0000 0.0000 0.0000 (  5961 PWs)   bands (ev):

    -5.7671   6.3493   6.3493   6.3493

          k =-0.1000 0.1000-0.1000 (  5901 PWs)   bands (ev):

    -5.6337   5.1890   6.1443   6.1443

          k =-0.2000 0.2000-0.2000 (  5892 PWs)   bands (ev):

    -5.2396   3.2960   5.7549   5.7549

          k =-0.3000 0.3000-0.3000 (  5900 PWs)   bands (ev):

    -4.6106   1.4768   5.4152   5.4152

          k =-0.4000 0.4000-0.4000 (  5882 PWs)   bands (ev):

    -3.8425  -0.0326   5.2010   5.2010

          k = 0.5000-0.5000 0.5000 (  5900 PWs)   bands (ev):

    -3.3720  -0.7538   5.1289   5.1289

          k = 0.0000 0.2000 0.0000 (  5909 PWs)   bands (ev):

    -5.5890   5.4221   5.7510   5.7510

          k =-0.1000 0.3000-0.1000 (  5910 PWs)   bands (ev):

    -5.2806   3.8751   5.3053   5.4904

          k =-0.2000 0.4000-0.2000 (  5918 PWs)   bands (ev):

    -4.7256   2.0788   4.9818   5.0477

          k =-0.3000 0.5000-0.3000 (  5880 PWs)   bands (ev):

    -3.9833   0.4709   4.6274   4.8348

          k = 0.6000-0.4000 0.6000 (  5885 PWs)   bands (ev):

    -3.3189  -0.5976   4.3295   4.8720

          k = 0.5000-0.3000 0.5000 (  5898 PWs)   bands (ev):

    -3.4935  -0.3399   4.1949   5.0789

          k = 0.4000-0.2000 0.4000 (  5901 PWs)   bands (ev):

    -4.2457   0.9763   4.2508   5.4226

          k = 0.3000-0.1000 0.3000 (  5917 PWs)   bands (ev):

    -4.9374   2.6615   4.5250   5.8386

          k = 0.2000 0.0000 0.2000 (  5903 PWs)   bands (ev):

    -5.4129   4.3040   5.1432   6.1727

          k = 0.0000 0.4000 0.0000 (  5914 PWs)   bands (ev):

    -5.0584   3.7325   4.8165   4.8165

          k =-0.1000 0.5000-0.1000 (  5901 PWs)   bands (ev):

    -4.5833   2.4580   4.2979   4.4617

          k =-0.2000 0.6000-0.2000 (  5878 PWs)   bands (ev):

    -3.8925   0.9837   3.6547   4.3008

          k = 0.7000-0.3000 0.7000 (  5884 PWs)   bands (ev):

    -3.1385  -0.2364   3.1330   4.3483

          k = 0.6000-0.2000 0.6000 (  5897 PWs)   bands (ev):

    -2.9781  -0.4539   2.8241   4.5945

          k = 0.5000-0.1000 0.5000 (  5896 PWs)   bands (ev):

    -3.6547   0.5663   2.7940   5.0036

          k = 0.4000 0.0000 0.4000 (  5887 PWs)   bands (ev):

    -4.3907   1.8355   3.2484   5.4881

          k = 0.0000 0.6000 0.0000 (  5890 PWs)   bands (ev):

    -4.1881   1.9204   4.0601   4.0601

          k =-0.1000 0.7000-0.1000 (  5886 PWs)   bands (ev):

    -3.5624   0.8974   3.4064   3.8519

          k = 0.8000-0.2000 0.8000 (  5877 PWs)   bands (ev):

    -2.7923  -0.1319   2.5455   3.8601

          k = 0.7000-0.1000 0.7000 (  5896 PWs)   bands (ev):

    -2.3546  -0.6266   1.9724   4.0819

          k = 0.6000-0.0000 0.6000 (  5880 PWs)   bands (ev):

    -2.9093  -0.0224   1.9434   4.4893

          k = 0.0000 0.8000 0.0000 (  5862 PWs)   bands (ev):

    -3.0022   0.1289   3.5865   3.5865

          k = 0.9000-0.1000 0.9000 (  5872 PWs)   bands (ev):

    -2.2570  -0.7260   2.9686   3.5374

          k = 0.8000 0.0000 0.8000 (  5874 PWs)   bands (ev):

    -1.7603  -1.1595   2.1477   3.7091

          k = 0.0000-1.0000 0.0000 (  5874 PWs)   bands (ev):

    -1.5417  -1.5416   3.4261   3.4261

          k =-0.2000 0.4000 0.0000 (  5903 PWs)   bands (ev):

    -4.8895   2.9543   4.1969   5.3572

          k =-0.3000 0.5000-0.1000 (  5899 PWs)   bands (ev):

    -4.2646   1.5140   3.6017   4.9689

          k = 0.6000-0.4000 0.8000 (  5881 PWs)   bands (ev):

    -3.4972   0.1140   3.3745   4.6061

          k = 0.5000-0.3000 0.7000 (  5884 PWs)   bands (ev):

    -3.0195  -0.5878   3.3170   4.4630

          k =-0.2000 0.6000 0.0000 (  5896 PWs)   bands (ev):

    -4.0344   1.5524   3.4531   4.2039

          k = 0.7000-0.3000 0.9000 (  5891 PWs)   bands (ev):

    -3.2966   0.4263   2.8189   3.8604

          k = 0.6000-0.2000 0.8000 (  5895 PWs)   bands (ev):

    -2.6239  -0.4664   2.4015   3.8029

          k = 0.5000-0.1000 0.7000 (  5874 PWs)   bands (ev):

    -2.8320  -0.1979   2.2418   4.0516

          k = 0.4000 0.0000 0.6000 (  5891 PWs)   bands (ev):

    -3.5891   0.7768   2.5443   4.5077

          k = 0.8000-0.2000 1.0000 (  5883 PWs)   bands (ev):

    -2.8794   0.0441   3.0326   3.3682

          k = 0.7000-0.1000 0.9000 (  5883 PWs)   bands (ev):

    -2.1202  -0.7451   2.2976   3.2743

          k = 0.6000 0.0000 0.8000 (  5878 PWs)   bands (ev):

    -2.1192  -0.7235   1.8648   3.5525

          k =-0.2000-1.0000 0.0000 (  5888 PWs)   bands (ev):

    -1.4841  -1.4841   2.9884   2.9884

          k = 0.6000-0.2000 1.0000 (  5887 PWs)   bands (ev):

    -2.5460  -0.2599   2.2388   3.2559

          k = 0.5000-0.1000 0.9000 (  5884 PWs)   bands (ev):

    -2.0187  -0.7805   2.0742   2.9952

          k =-0.4000-1.0000 0.0000 (  5876 PWs)   bands (ev):

    -1.3820  -1.3820   2.4456   2.4456

!    total energy              =     -22.67755126 Ry
     Harris-Foulkes estimate   =     -22.67755126 Ry
     estimated scf accuracy    <          5.0E-10 Ry

     The total energy is the sum of the following terms:

     one-electron contribution =       5.31992026 Ry
     hartree contribution      =       1.06384737 Ry
     xc contribution           =     -12.16156032 Ry
     ewald contribution        =     -16.89975857 Ry

     convergence has been achieved in   8 iterations

     Forces acting on atoms (Ry/au):

     atom    1 type  1   force =    -0.00000000   -0.00000000   -0.00000000
     atom    2 type  1   force =     0.00000000    0.00000000   -0.00000000

     Total force =     0.000000     Total SCF correction =     0.000000


     entering subroutine stress ...

          total   stress  (Ry/bohr**3)                   (kbar)     P=   19.34
   0.00013146   0.00000000   0.00000000         19.34      0.00      0.00
   0.00000000   0.00013146   0.00000000          0.00     19.34      0.00
   0.00000000   0.00000000   0.00013146          0.00      0.00     19.34


     Writing output data file si.save
 
     init_run     :      1.18s CPU      1.25s WALL (       1 calls)
     electrons    :     15.79s CPU     16.82s WALL (       1 calls)
     forces       :      0.21s CPU      0.22s WALL (       1 calls)
     stress       :      0.72s CPU      0.74s WALL (       1 calls)

     Called by init_run:
     wfcinit      :      0.76s CPU      0.79s WALL (       1 calls)
     potinit      :      0.03s CPU      0.03s WALL (       1 calls)

     Called by electrons:
     c_bands      :     12.53s CPU     13.29s WALL (       9 calls)
     sum_band     :      2.40s CPU      2.61s WALL (       9 calls)
     v_of_rho     :      0.21s CPU      0.22s WALL (       9 calls)
     newd         :      0.63s CPU      0.64s WALL (       9 calls)
     mix_rho      :      0.02s CPU      0.02s WALL (       9 calls)

     Called by c_bands:
     init_us_2    :      0.46s CPU      0.46s WALL (     987 calls)
     cegterg      :     10.54s CPU     11.14s WALL (     423 calls)

     Called by *egterg:
     h_psi        :     10.09s CPU     10.54s WALL (    1338 calls)
     s_psi        :      0.28s CPU      0.26s WALL (    1338 calls)
     g_psi        :      0.03s CPU      0.04s WALL (     868 calls)
     cdiaghg      :      0.24s CPU      0.28s WALL (    1244 calls)

     Called by h_psi:
     add_vuspsi   :      0.26s CPU      0.28s WALL (    1338 calls)

     General routines
     calbec       :      0.68s CPU      0.68s WALL (    1855 calls)
     fft          :      0.24s CPU      0.26s WALL (     144 calls)
     fftw         :      9.77s CPU     10.23s WALL (   11848 calls)
     davcio       :      0.06s CPU      0.08s WALL (    1410 calls)
 
     Parallel routines
     fft_scatter  :      3.63s CPU      3.75s WALL (   11992 calls)
 
     PWSCF        :    18.44s CPU        19.62s WALL

 
   This run was terminated on:  11: 7:16  31Aug2016            

=------------------------------------------------------------------------------=
   JOB DONE.
=------------------------------------------------------------------------------=
