
     Program PWSCF v.5.0.2 (svn rev. 9392) starts on 31Aug2016 at 10: 2: 0 

     This program is part of the open-source Quantum ESPRESSO suite
     for quantum simulation of materials; please cite
         "P. Giannozzi et al., J. Phys.:Condens. Matter 21 395502 (2009);
          URL http://www.quantum-espresso.org", 
     in publications or presentations arising from this work. More details at
     http://www.quantum-espresso.org/quote.php

     Parallel version (MPI), running on     8 processors
     R & G space division:  proc/nbgrp/npool/nimage =       8

     Current dimensions of program PWSCF are:
     Max number of different atomic species (ntypx) = 10
     Max number of k-points (npk) =  40000
     Max angular momentum in pseudopotentials (lmaxx) =  3
     Waiting for input...
     Reading input from standard input

     Subspace diagonalization in iterative solution of the eigenvalue problem:
     a serial algorithm will be used

 
     Parallelization info
     --------------------
     sticks:   dense  smooth     PW     G-vecs:    dense   smooth      PW
     Min         358     215     62                12691     5892     922
     Max         359     216     63                12695     5909     926
     Sum        2869    1723    499               101549    47183    7391
 


     bravais-lattice index     =            2
     lattice parameter (alat)  =      10.2000  a.u.
     unit-cell volume          =     265.3020 (a.u.)^3
     number of atoms/cell      =            2
     number of atomic types    =            1
     number of electrons       =         8.00
     number of Kohn-Sham states=            4
     kinetic-energy cutoff     =     120.0000  Ry
     charge density cutoff     =     800.0000  Ry
     convergence threshold     =      1.0E-08
     mixing beta               =       0.7000
     number of iterations used =            8  plain     mixing
     Exchange-correlation      = PBESOL ( 1 410 8 0)
     EXX-fraction              =        0.00

     celldm(1)=  10.200000  celldm(2)=   0.000000  celldm(3)=   0.000000
     celldm(4)=   0.000000  celldm(5)=   0.000000  celldm(6)=   0.000000

     crystal axes: (cart. coord. in units of alat)
               a(1) = (  -0.500000   0.000000   0.500000 )  
               a(2) = (   0.000000   0.500000   0.500000 )  
               a(3) = (  -0.500000   0.500000   0.000000 )  

     reciprocal axes: (cart. coord. in units 2 pi/alat)
               b(1) = ( -1.000000 -1.000000  1.000000 )  
               b(2) = (  1.000000  1.000000  1.000000 )  
               b(3) = ( -1.000000  1.000000 -1.000000 )  


     PseudoPot. # 1 for Si read from file:
     ./Si.pbesol-n-rrkjus_psl.1.0.0.UPF
     MD5 check sum: 8befc6ca08d45158dbd3e93582c1ea6d
     Pseudo is Ultrasoft + core correction, Zval =  4.0
     Generated using "atomic" code by A. Dal Corso  v.5.1
     Using radial grid of 1141 points,  6 beta functions with: 
                l(1) =   0
                l(2) =   0
                l(3) =   1
                l(4) =   1
                l(5) =   2
                l(6) =   2
     Q(r) pseudized with 0 coefficients 


     atomic species   valence    mass     pseudopotential
        Si             4.00    28.08600     Si( 1.00)

     48 Sym. Ops., with inversion, found (24 have fractional translation)



   Cartesian axes

     site n.     atom                  positions (alat units)
         1           Si  tau(   1) = (   0.0000000   0.0000000   0.0000000  )
         2           Si  tau(   2) = (   0.2500000   0.2500000   0.2500000  )

     number of k points=   145

     Number of k-points >= 100: set verbosity='high' to print them.

     Dense  grid:   101549 G-vectors     FFT dimensions: (  72,  72,  72)

     Smooth grid:    47183 G-vectors     FFT dimensions: (  54,  54,  54)

     Largest allocated arrays     est. size (Mb)     dimensions
        Kohn-Sham Wavefunctions         0.05 Mb     (    750,    4)
        NL pseudopotentials             0.41 Mb     (    750,   36)
        Each V/rho on FFT grid          0.71 Mb     (  46656)
        Each G-vector array             0.10 Mb     (  12692)
        G-vector shells                 0.01 Mb     (    695)
     Largest temporary arrays     est. size (Mb)     dimensions
        Auxiliary wavefunctions         0.18 Mb     (    750,   16)
        Each subspace H/S matrix        0.00 Mb     (  16,  16)
        Each <psi_i|beta_j> matrix      0.00 Mb     (     36,    4)
        Arrays for rho mixing           5.70 Mb     (  46656,   8)

     Initial potential from superposition of free atoms

     starting charge    7.99892, renormalised to    8.00000
     Starting wfc are    8 randomized atomic wfcs

     total cpu time spent up to now is        4.0 secs

     per-process dynamical memory:    19.2 Mb

     Self-consistent Calculation

     iteration #  1     ecut=   120.00 Ry     beta=0.70
     Davidson diagonalization with overlap
     ethr =  1.00E-02,  avg # of iterations =  2.0

     Threshold (ethr) on eigenvalues was too large:
     Diagonalizing with lowered threshold

     Davidson diagonalization with overlap
     ethr =  7.01E-04,  avg # of iterations =  1.4

     total cpu time spent up to now is       14.8 secs

     total energy              =     -22.67434635 Ry
     Harris-Foulkes estimate   =     -22.69250244 Ry
     estimated scf accuracy    <       0.05555712 Ry

     iteration #  2     ecut=   120.00 Ry     beta=0.70
     Davidson diagonalization with overlap
     ethr =  6.94E-04,  avg # of iterations =  1.0

     total cpu time spent up to now is       19.7 secs

     total energy              =     -22.67678720 Ry
     Harris-Foulkes estimate   =     -22.67718787 Ry
     estimated scf accuracy    <       0.00220486 Ry

     iteration #  3     ecut=   120.00 Ry     beta=0.70
     Davidson diagonalization with overlap
     ethr =  2.76E-05,  avg # of iterations =  3.0

     total cpu time spent up to now is       26.2 secs

     total energy              =     -22.67758180 Ry
     Harris-Foulkes estimate   =     -22.67767023 Ry
     estimated scf accuracy    <       0.00016102 Ry

     iteration #  4     ecut=   120.00 Ry     beta=0.70
     Davidson diagonalization with overlap
     ethr =  2.01E-06,  avg # of iterations =  2.0

     total cpu time spent up to now is       32.3 secs

     total energy              =     -22.67760301 Ry
     Harris-Foulkes estimate   =     -22.67764099 Ry
     estimated scf accuracy    <       0.00007486 Ry

     iteration #  5     ecut=   120.00 Ry     beta=0.70
     Davidson diagonalization with overlap
     ethr =  9.36E-07,  avg # of iterations =  2.0

     total cpu time spent up to now is       37.9 secs

     total energy              =     -22.67761192 Ry
     Harris-Foulkes estimate   =     -22.67761192 Ry
     estimated scf accuracy    <       0.00000003 Ry

     iteration #  6     ecut=   120.00 Ry     beta=0.70
     Davidson diagonalization with overlap
     ethr =  3.45E-10,  avg # of iterations =  4.5

     total cpu time spent up to now is       47.0 secs

     total energy              =     -22.67761221 Ry
     Harris-Foulkes estimate   =     -22.67761222 Ry
     estimated scf accuracy    <       0.00000006 Ry

     iteration #  7     ecut=   120.00 Ry     beta=0.70
     Davidson diagonalization with overlap
     ethr =  3.45E-10,  avg # of iterations =  1.0

     total cpu time spent up to now is       51.7 secs

     total energy              =     -22.67761220 Ry
     Harris-Foulkes estimate   =     -22.67761221 Ry
     estimated scf accuracy    <       0.00000001 Ry

     iteration #  8     ecut=   120.00 Ry     beta=0.70
     Davidson diagonalization with overlap
     ethr =  1.47E-10,  avg # of iterations =  2.0

     total cpu time spent up to now is       57.6 secs

     End of self-consistent calculation

     Number of k-points >= 100: set verbosity='high' to print the bands.

!    total energy              =     -22.67761220 Ry
     Harris-Foulkes estimate   =     -22.67761220 Ry
     estimated scf accuracy    <          1.1E-10 Ry

     The total energy is the sum of the following terms:

     one-electron contribution =       5.31998531 Ry
     hartree contribution      =       1.06362225 Ry
     xc contribution           =     -12.16146119 Ry
     ewald contribution        =     -16.89975857 Ry

     convergence has been achieved in   8 iterations

     Writing output data file si.save
 
     init_run     :      3.54s CPU      3.62s WALL (       1 calls)
     electrons    :     52.15s CPU     53.55s WALL (       1 calls)

     Called by init_run:
     wfcinit      :      2.72s CPU      2.77s WALL (       1 calls)
     potinit      :      0.08s CPU      0.09s WALL (       1 calls)

     Called by electrons:
     c_bands      :     42.04s CPU     43.09s WALL (       9 calls)
     sum_band     :      8.04s CPU      8.28s WALL (       9 calls)
     v_of_rho     :      0.60s CPU      0.64s WALL (       9 calls)
     newd         :      1.33s CPU      1.35s WALL (       9 calls)
     mix_rho      :      0.06s CPU      0.06s WALL (       9 calls)

     Called by c_bands:
     init_us_2    :      1.34s CPU      1.32s WALL (    2755 calls)
     cegterg      :     35.85s CPU     36.65s WALL (    1305 calls)

     Called by *egterg:
     h_psi        :     34.92s CPU     35.66s WALL (    4196 calls)
     s_psi        :      0.90s CPU      0.83s WALL (    4196 calls)
     g_psi        :      0.11s CPU      0.13s WALL (    2746 calls)
     cdiaghg      :      0.66s CPU      0.65s WALL (    3906 calls)

     Called by h_psi:
     add_vuspsi   :      0.86s CPU      0.91s WALL (    4196 calls)

     General routines
     calbec       :      2.20s CPU      2.19s WALL (    5501 calls)
     fft          :      0.54s CPU      0.55s WALL (     144 calls)
     ffts         :      0.02s CPU      0.02s WALL (      18 calls)
     fftw         :     30.91s CPU     31.76s WALL (   37274 calls)
     interpolate  :      0.09s CPU      0.09s WALL (      18 calls)
     davcio       :      0.27s CPU      0.27s WALL (    4060 calls)
 
     Parallel routines
     fft_scatter  :     11.18s CPU     11.37s WALL (   37436 calls)
 
     PWSCF        :    56.47s CPU        58.02s WALL

 
   This run was terminated on:  10: 2:58  31Aug2016            

=------------------------------------------------------------------------------=
   JOB DONE.
=------------------------------------------------------------------------------=
