
     Program PWSCF v.5.0.2 (svn rev. 9392) starts on 31Aug2016 at 11:18:17 

     This program is part of the open-source Quantum ESPRESSO suite
     for quantum simulation of materials; please cite
         "P. Giannozzi et al., J. Phys.:Condens. Matter 21 395502 (2009);
          URL http://www.quantum-espresso.org", 
     in publications or presentations arising from this work. More details at
     http://www.quantum-espresso.org/quote.php

     Parallel version (MPI), running on     8 processors
     R & G space division:  proc/nbgrp/npool/nimage =       8

     Current dimensions of program PWSCF are:
     Max number of different atomic species (ntypx) = 10
     Max number of k-points (npk) =  40000
     Max angular momentum in pseudopotentials (lmaxx) =  3
     Waiting for input...
     Reading input from standard input

     Subspace diagonalization in iterative solution of the eigenvalue problem:
     a serial algorithm will be used

 
     Parallelization info
     --------------------
     sticks:   dense  smooth     PW     G-vecs:    dense   smooth      PW
     Min         215     215     62                 5897     5897     916
     Max         216     216     63                 5900     5900     920
     Sum        1723    1723    499                47183    47183    7343
 


     bravais-lattice index     =            2
     lattice parameter (alat)  =      10.2000  a.u.
     unit-cell volume          =     265.3020 (a.u.)^3
     number of atoms/cell      =            2
     number of atomic types    =            1
     number of electrons       =         8.00
     number of Kohn-Sham states=            4
     kinetic-energy cutoff     =     120.0000  Ry
     charge density cutoff     =     480.0000  Ry
     convergence threshold     =      1.0E-08
     mixing beta               =       0.7000
     number of iterations used =            8  plain     mixing
     Exchange-correlation      = PBESOL ( 1 410 8 0)
     EXX-fraction              =        0.00

     celldm(1)=  10.200000  celldm(2)=   0.000000  celldm(3)=   0.000000
     celldm(4)=   0.000000  celldm(5)=   0.000000  celldm(6)=   0.000000

     crystal axes: (cart. coord. in units of alat)
               a(1) = (  -0.500000   0.000000   0.500000 )  
               a(2) = (   0.000000   0.500000   0.500000 )  
               a(3) = (  -0.500000   0.500000   0.000000 )  

     reciprocal axes: (cart. coord. in units 2 pi/alat)
               b(1) = ( -1.000000 -1.000000  1.000000 )  
               b(2) = (  1.000000  1.000000  1.000000 )  
               b(3) = ( -1.000000  1.000000 -1.000000 )  


     PseudoPot. # 1 for Si read from file:
     ./Si.pbesol-n-rrkjus_psl.1.0.0.UPF
     MD5 check sum: 8befc6ca08d45158dbd3e93582c1ea6d
     Pseudo is Ultrasoft + core correction, Zval =  4.0
     Generated using "atomic" code by A. Dal Corso  v.5.1
     Using radial grid of 1141 points,  6 beta functions with: 
                l(1) =   0
                l(2) =   0
                l(3) =   1
                l(4) =   1
                l(5) =   2
                l(6) =   2
     Q(r) pseudized with 0 coefficients 


     atomic species   valence    mass     pseudopotential
        Si             4.00    28.08600     Si( 1.00)

     24 Sym. Ops. (no inversion) found
          (note: 24 additional sym.ops. were found but ignored
           their fractional translations are incommensurate with FFT grid)


   Cartesian axes

     site n.     atom                  positions (alat units)
         1           Si  tau(   1) = (   0.0000000   0.0000000   0.0000000  )
         2           Si  tau(   2) = (   0.2500000   0.2500000   0.2500000  )

     number of k points=    29
                       cart. coord. in units 2pi/alat
        k(    1) = (   0.0000000   0.0000000   0.0000000), wk =   0.0039062
        k(    2) = (  -0.1250000   0.1250000  -0.1250000), wk =   0.0312500
        k(    3) = (  -0.2500000   0.2500000  -0.2500000), wk =   0.0312500
        k(    4) = (  -0.3750000   0.3750000  -0.3750000), wk =   0.0312500
        k(    5) = (   0.5000000  -0.5000000   0.5000000), wk =   0.0156250
        k(    6) = (   0.0000000   0.2500000   0.0000000), wk =   0.0234375
        k(    7) = (  -0.1250000   0.3750000  -0.1250000), wk =   0.0937500
        k(    8) = (  -0.2500000   0.5000000  -0.2500000), wk =   0.0937500
        k(    9) = (   0.6250000  -0.3750000   0.6250000), wk =   0.0937500
        k(   10) = (   0.5000000  -0.2500000   0.5000000), wk =   0.0937500
        k(   11) = (   0.3750000  -0.1250000   0.3750000), wk =   0.0937500
        k(   12) = (   0.2500000   0.0000000   0.2500000), wk =   0.0468750
        k(   13) = (   0.0000000   0.5000000   0.0000000), wk =   0.0234375
        k(   14) = (  -0.1250000   0.6250000  -0.1250000), wk =   0.0937500
        k(   15) = (   0.7500000  -0.2500000   0.7500000), wk =   0.0937500
        k(   16) = (   0.6250000  -0.1250000   0.6250000), wk =   0.0937500
        k(   17) = (   0.5000000   0.0000000   0.5000000), wk =   0.0468750
        k(   18) = (   0.0000000   0.7500000   0.0000000), wk =   0.0234375
        k(   19) = (   0.8750000  -0.1250000   0.8750000), wk =   0.0937500
        k(   20) = (   0.7500000   0.0000000   0.7500000), wk =   0.0468750
        k(   21) = (   0.0000000  -1.0000000   0.0000000), wk =   0.0117188
        k(   22) = (  -0.2500000   0.5000000   0.0000000), wk =   0.0937500
        k(   23) = (   0.6250000  -0.3750000   0.8750000), wk =   0.1875000
        k(   24) = (   0.5000000  -0.2500000   0.7500000), wk =   0.0937500
        k(   25) = (   0.7500000  -0.2500000   1.0000000), wk =   0.0937500
        k(   26) = (   0.6250000  -0.1250000   0.8750000), wk =   0.1875000
        k(   27) = (   0.5000000   0.0000000   0.7500000), wk =   0.0937500
        k(   28) = (  -0.2500000  -1.0000000   0.0000000), wk =   0.0468750
        k(   29) = (  -0.5000000  -1.0000000   0.0000000), wk =   0.0234375

     Dense  grid:    47183 G-vectors     FFT dimensions: (  54,  54,  54)

     Largest allocated arrays     est. size (Mb)     dimensions
        Kohn-Sham Wavefunctions         0.05 Mb     (    740,    4)
        NL pseudopotentials             0.41 Mb     (    740,   36)
        Each V/rho on FFT grid          0.31 Mb     (  20412)
        Each G-vector array             0.05 Mb     (   5900)
        G-vector shells                 0.00 Mb     (    417)
     Largest temporary arrays     est. size (Mb)     dimensions
        Auxiliary wavefunctions         0.18 Mb     (    740,   16)
        Each subspace H/S matrix        0.00 Mb     (  16,  16)
        Each <psi_i|beta_j> matrix      0.00 Mb     (     36,    4)
        Arrays for rho mixing           2.49 Mb     (  20412,   8)

     Initial potential from superposition of free atoms

     starting charge    7.99892, renormalised to    8.00000
     Starting wfc are    8 randomized atomic wfcs

     total cpu time spent up to now is        1.3 secs

     per-process dynamical memory:    14.2 Mb

     Self-consistent Calculation

     iteration #  1     ecut=   120.00 Ry     beta=0.70
     Davidson diagonalization with overlap
     ethr =  1.00E-02,  avg # of iterations =  2.0

     Threshold (ethr) on eigenvalues was too large:
     Diagonalizing with lowered threshold

     Davidson diagonalization with overlap
     ethr =  7.03E-04,  avg # of iterations =  1.4

     total cpu time spent up to now is        3.5 secs

     total energy              =     -22.67403719 Ry
     Harris-Foulkes estimate   =     -22.69222073 Ry
     estimated scf accuracy    <       0.05565278 Ry

     iteration #  2     ecut=   120.00 Ry     beta=0.70
     Davidson diagonalization with overlap
     ethr =  6.96E-04,  avg # of iterations =  1.0

     total cpu time spent up to now is        4.8 secs

     total energy              =     -22.67645223 Ry
     Harris-Foulkes estimate   =     -22.67686499 Ry
     estimated scf accuracy    <       0.00223865 Ry

     iteration #  3     ecut=   120.00 Ry     beta=0.70
     Davidson diagonalization with overlap
     ethr =  2.80E-05,  avg # of iterations =  2.9

     total cpu time spent up to now is        6.2 secs

     total energy              =     -22.67726280 Ry
     Harris-Foulkes estimate   =     -22.67735433 Ry
     estimated scf accuracy    <       0.00016967 Ry

     iteration #  4     ecut=   120.00 Ry     beta=0.70
     Davidson diagonalization with overlap
     ethr =  2.12E-06,  avg # of iterations =  2.1

     total cpu time spent up to now is        7.5 secs

     total energy              =     -22.67728233 Ry
     Harris-Foulkes estimate   =     -22.67732866 Ry
     estimated scf accuracy    <       0.00009026 Ry

     iteration #  5     ecut=   120.00 Ry     beta=0.70
     Davidson diagonalization with overlap
     ethr =  1.13E-06,  avg # of iterations =  2.0

     total cpu time spent up to now is        8.6 secs

     total energy              =     -22.67729296 Ry
     Harris-Foulkes estimate   =     -22.67729295 Ry
     estimated scf accuracy    <       0.00000002 Ry

     iteration #  6     ecut=   120.00 Ry     beta=0.70
     Davidson diagonalization with overlap
     ethr =  3.02E-10,  avg # of iterations =  4.8

     total cpu time spent up to now is       10.4 secs

     total energy              =     -22.67729334 Ry
     Harris-Foulkes estimate   =     -22.67729337 Ry
     estimated scf accuracy    <       0.00000009 Ry

     iteration #  7     ecut=   120.00 Ry     beta=0.70
     Davidson diagonalization with overlap
     ethr =  3.02E-10,  avg # of iterations =  2.0

     total cpu time spent up to now is       11.6 secs

     total energy              =     -22.67729334 Ry
     Harris-Foulkes estimate   =     -22.67729334 Ry
     estimated scf accuracy    <       0.00000001 Ry

     iteration #  8     ecut=   120.00 Ry     beta=0.70
     Davidson diagonalization with overlap
     ethr =  1.36E-10,  avg # of iterations =  1.0

     total cpu time spent up to now is       12.6 secs

     End of self-consistent calculation

          k = 0.0000 0.0000 0.0000 (  5961 PWs)   bands (ev):

    -5.7660   6.3509   6.3509   6.3509

          k =-0.1250 0.1250-0.1250 (  5901 PWs)   bands (ev):

    -5.5579   4.7303   6.0529   6.0529

          k =-0.2500 0.2500-0.2500 (  5913 PWs)   bands (ev):

    -4.9502   2.3625   5.5732   5.5732

          k =-0.3750 0.3750-0.3750 (  5891 PWs)   bands (ev):

    -4.0338   0.3013   5.2428   5.2428

          k = 0.5000-0.5000 0.5000 (  5900 PWs)   bands (ev):

    -3.3707  -0.7527   5.1303   5.1303

          k = 0.0000 0.2500 0.0000 (  5910 PWs)   bands (ev):

    -5.4879   5.0288   5.5156   5.5156

          k =-0.1250 0.3750-0.1250 (  5906 PWs)   bands (ev):

    -5.0100   3.0945   4.9930   5.0793

          k =-0.2500 0.5000-0.2500 (  5886 PWs)   bands (ev):

    -4.1764   0.9889   4.4753   4.7229

          k = 0.6250-0.3750 0.6250 (  5894 PWs)   bands (ev):

    -3.2859  -0.5156   4.0187   4.7522

          k = 0.5000-0.2500 0.5000 (  5897 PWs)   bands (ev):

    -3.5404  -0.1326   3.8281   5.0588

          k = 0.3750-0.1250 0.3750 (  5905 PWs)   bands (ev):

    -4.4900   1.6635   3.9734   5.5637

          k = 0.2500 0.0000 0.2500 (  5907 PWs)   bands (ev):

    -5.2151   3.6461   4.6614   6.0565

          k = 0.0000 0.5000 0.0000 (  5862 PWs)   bands (ev):

    -4.6634   2.8318   4.4077   4.4077

          k =-0.1250 0.6250-0.1250 (  5897 PWs)   bands (ev):

    -3.9385   1.3798   3.5996   4.0843

          k = 0.7500-0.2500 0.7500 (  5882 PWs)   bands (ev):

    -2.9869  -0.1028   2.7119   4.0899

          k = 0.6250-0.1250 0.6250 (  5876 PWs)   bands (ev):

    -2.7726  -0.3729   2.2377   4.4179

          k = 0.5000 0.0000 0.5000 (  5881 PWs)   bands (ev):

    -3.6779   0.8215   2.4752   4.9927

          k = 0.0000 0.7500 0.0000 (  5874 PWs)   bands (ev):

    -3.3251   0.5707   3.6773   3.6773

          k = 0.8750-0.1250 0.8750 (  5872 PWs)   bands (ev):

    -2.4075  -0.5327   2.8059   3.6005

          k = 0.7500 0.0000 0.7500 (  5882 PWs)   bands (ev):

    -1.9467  -0.9439   1.9014   3.8649

          k = 0.0000-1.0000 0.0000 (  5874 PWs)   bands (ev):

    -1.5403  -1.5403   3.4272   3.4272

          k =-0.2500 0.5000 0.0000 (  5902 PWs)   bands (ev):

    -4.4100   2.0327   3.5480   4.8860

          k = 0.6250-0.3750 0.8750 (  5884 PWs)   bands (ev):

    -3.4997   0.4424   2.9350   4.3643

          k = 0.5000-0.2500 0.7500 (  5894 PWs)   bands (ev):

    -2.8233  -0.5361   2.8101   4.1254

          k = 0.7500-0.2500 1.0000 (  5871 PWs)   bands (ev):

    -3.1197   0.3488   2.8826   3.5035

          k = 0.6250-0.1250 0.8750 (  5886 PWs)   bands (ev):

    -2.2185  -0.6411   2.1562   3.2948

          k = 0.5000 0.0000 0.7500 (  5882 PWs)   bands (ev):

    -2.5770  -0.2726   1.9823   3.6840

          k =-0.2500-1.0000 0.0000 (  5884 PWs)   bands (ev):

    -1.4558  -1.4558   2.8252   2.8252

          k =-0.5000-1.0000 0.0000 (  5876 PWs)   bands (ev):

    -1.3619  -1.3619   2.3649   2.3649

!    total energy              =     -22.67729334 Ry
     Harris-Foulkes estimate   =     -22.67729334 Ry
     estimated scf accuracy    <          1.8E-09 Ry

     The total energy is the sum of the following terms:

     one-electron contribution =       5.31974937 Ry
     hartree contribution      =       1.06462847 Ry
     xc contribution           =     -12.16191261 Ry
     ewald contribution        =     -16.89975857 Ry

     convergence has been achieved in   8 iterations

     Forces acting on atoms (Ry/au):

     atom    1 type  1   force =     0.00000000    0.00000000    0.00000000
     atom    2 type  1   force =     0.00000000   -0.00000000   -0.00000000

     Total force =     0.000000     Total SCF correction =     0.000000


     entering subroutine stress ...

          total   stress  (Ry/bohr**3)                   (kbar)     P=   19.43
   0.00013207  -0.00000000  -0.00000000         19.43     -0.00     -0.00
  -0.00000000   0.00013207   0.00000000         -0.00     19.43      0.00
  -0.00000000   0.00000000   0.00013207         -0.00      0.00     19.43


     Writing output data file si.save
 
     init_run     :      0.92s CPU      0.96s WALL (       1 calls)
     electrons    :     10.42s CPU     11.25s WALL (       1 calls)
     forces       :      0.19s CPU      0.19s WALL (       1 calls)
     stress       :      0.55s CPU      0.57s WALL (       1 calls)

     Called by init_run:
     wfcinit      :      0.53s CPU      0.55s WALL (       1 calls)
     potinit      :      0.03s CPU      0.03s WALL (       1 calls)

     Called by electrons:
     c_bands      :      7.93s CPU      8.42s WALL (       9 calls)
     sum_band     :      1.66s CPU      1.78s WALL (       9 calls)
     v_of_rho     :      0.22s CPU      0.27s WALL (       9 calls)
     newd         :      0.57s CPU      0.69s WALL (       9 calls)
     mix_rho      :      0.02s CPU      0.03s WALL (       9 calls)

     Called by c_bands:
     init_us_2    :      0.28s CPU      0.28s WALL (     609 calls)
     cegterg      :      6.68s CPU      7.10s WALL (     261 calls)

     Called by *egterg:
     h_psi        :      6.54s CPU      6.95s WALL (     848 calls)
     s_psi        :      0.18s CPU      0.17s WALL (     848 calls)
     g_psi        :      0.02s CPU      0.03s WALL (     558 calls)
     cdiaghg      :      0.13s CPU      0.14s WALL (     790 calls)

     Called by h_psi:
     add_vuspsi   :      0.18s CPU      0.18s WALL (     848 calls)

     General routines
     calbec       :      0.41s CPU      0.44s WALL (    1167 calls)
     fft          :      0.17s CPU      0.21s WALL (     144 calls)
     fftw         :      6.28s CPU      6.75s WALL (    7478 calls)
     davcio       :      0.05s CPU      0.05s WALL (     870 calls)
 
     Parallel routines
     fft_scatter  :      2.46s CPU      2.66s WALL (    7622 calls)
 
     PWSCF        :    12.58s CPU        13.52s WALL

 
   This run was terminated on:  11:18:30  31Aug2016            

=------------------------------------------------------------------------------=
   JOB DONE.
=------------------------------------------------------------------------------=
