
     Program PWSCF v.5.0.2 (svn rev. 9392) starts on 31Aug2016 at 11:18: 9 

     This program is part of the open-source Quantum ESPRESSO suite
     for quantum simulation of materials; please cite
         "P. Giannozzi et al., J. Phys.:Condens. Matter 21 395502 (2009);
          URL http://www.quantum-espresso.org", 
     in publications or presentations arising from this work. More details at
     http://www.quantum-espresso.org/quote.php

     Parallel version (MPI), running on     8 processors
     R & G space division:  proc/nbgrp/npool/nimage =       8

     Current dimensions of program PWSCF are:
     Max number of different atomic species (ntypx) = 10
     Max number of k-points (npk) =  40000
     Max angular momentum in pseudopotentials (lmaxx) =  3
     Waiting for input...
     Reading input from standard input

     Subspace diagonalization in iterative solution of the eigenvalue problem:
     a serial algorithm will be used

 
     Parallelization info
     --------------------
     sticks:   dense  smooth     PW     G-vecs:    dense   smooth      PW
     Min         215     215     62                 5897     5897     903
     Max         216     216     63                 5900     5900     906
     Sum        1723    1723    499                47183    47183    7239
 


     bravais-lattice index     =            2
     lattice parameter (alat)  =      10.2000  a.u.
     unit-cell volume          =     265.3020 (a.u.)^3
     number of atoms/cell      =            2
     number of atomic types    =            1
     number of electrons       =         8.00
     number of Kohn-Sham states=            4
     kinetic-energy cutoff     =     120.0000  Ry
     charge density cutoff     =     480.0000  Ry
     convergence threshold     =      1.0E-08
     mixing beta               =       0.7000
     number of iterations used =            8  plain     mixing
     Exchange-correlation      = PBESOL ( 1 410 8 0)
     EXX-fraction              =        0.00

     celldm(1)=  10.200000  celldm(2)=   0.000000  celldm(3)=   0.000000
     celldm(4)=   0.000000  celldm(5)=   0.000000  celldm(6)=   0.000000

     crystal axes: (cart. coord. in units of alat)
               a(1) = (  -0.500000   0.000000   0.500000 )  
               a(2) = (   0.000000   0.500000   0.500000 )  
               a(3) = (  -0.500000   0.500000   0.000000 )  

     reciprocal axes: (cart. coord. in units 2 pi/alat)
               b(1) = ( -1.000000 -1.000000  1.000000 )  
               b(2) = (  1.000000  1.000000  1.000000 )  
               b(3) = ( -1.000000  1.000000 -1.000000 )  


     PseudoPot. # 1 for Si read from file:
     ./Si.pbesol-n-rrkjus_psl.1.0.0.UPF
     MD5 check sum: 8befc6ca08d45158dbd3e93582c1ea6d
     Pseudo is Ultrasoft + core correction, Zval =  4.0
     Generated using "atomic" code by A. Dal Corso  v.5.1
     Using radial grid of 1141 points,  6 beta functions with: 
                l(1) =   0
                l(2) =   0
                l(3) =   1
                l(4) =   1
                l(5) =   2
                l(6) =   2
     Q(r) pseudized with 0 coefficients 


     atomic species   valence    mass     pseudopotential
        Si             4.00    28.08600     Si( 1.00)

     24 Sym. Ops. (no inversion) found
          (note: 24 additional sym.ops. were found but ignored
           their fractional translations are incommensurate with FFT grid)


   Cartesian axes

     site n.     atom                  positions (alat units)
         1           Si  tau(   1) = (   0.0000000   0.0000000   0.0000000  )
         2           Si  tau(   2) = (   0.2500000   0.2500000   0.2500000  )

     number of k points=    16
                       cart. coord. in units 2pi/alat
        k(    1) = (   0.0000000   0.0000000   0.0000000), wk =   0.0092593
        k(    2) = (  -0.1666667   0.1666667  -0.1666667), wk =   0.0740741
        k(    3) = (  -0.3333333   0.3333333  -0.3333333), wk =   0.0740741
        k(    4) = (   0.5000000  -0.5000000   0.5000000), wk =   0.0370370
        k(    5) = (   0.0000000   0.3333333   0.0000000), wk =   0.0555556
        k(    6) = (  -0.1666667   0.5000000  -0.1666667), wk =   0.2222222
        k(    7) = (   0.6666667  -0.3333333   0.6666667), wk =   0.2222222
        k(    8) = (   0.5000000  -0.1666667   0.5000000), wk =   0.2222222
        k(    9) = (   0.3333333   0.0000000   0.3333333), wk =   0.1111111
        k(   10) = (   0.0000000   0.6666667   0.0000000), wk =   0.0555556
        k(   11) = (   0.8333333  -0.1666667   0.8333333), wk =   0.2222222
        k(   12) = (   0.6666667  -0.0000000   0.6666667), wk =   0.1111111
        k(   13) = (   0.0000000  -1.0000000   0.0000000), wk =   0.0277778
        k(   14) = (   0.6666667  -0.3333333   1.0000000), wk =   0.2222222
        k(   15) = (   0.5000000  -0.1666667   0.8333333), wk =   0.2222222
        k(   16) = (  -0.3333333  -1.0000000   0.0000000), wk =   0.1111111

     Dense  grid:    47183 G-vectors     FFT dimensions: (  54,  54,  54)

     Largest allocated arrays     est. size (Mb)     dimensions
        Kohn-Sham Wavefunctions         0.05 Mb     (    755,    4)
        NL pseudopotentials             0.41 Mb     (    755,   36)
        Each V/rho on FFT grid          0.31 Mb     (  20412)
        Each G-vector array             0.05 Mb     (   5900)
        G-vector shells                 0.00 Mb     (    420)
     Largest temporary arrays     est. size (Mb)     dimensions
        Auxiliary wavefunctions         0.18 Mb     (    755,   16)
        Each subspace H/S matrix        0.00 Mb     (  16,  16)
        Each <psi_i|beta_j> matrix      0.00 Mb     (     36,    4)
        Arrays for rho mixing           2.49 Mb     (  20412,   8)

     Initial potential from superposition of free atoms

     starting charge    7.99892, renormalised to    8.00000
     Starting wfc are    8 randomized atomic wfcs

     total cpu time spent up to now is        1.2 secs

     per-process dynamical memory:    14.1 Mb

     Self-consistent Calculation

     iteration #  1     ecut=   120.00 Ry     beta=0.70
     Davidson diagonalization with overlap
     ethr =  1.00E-02,  avg # of iterations =  2.0

     Threshold (ethr) on eigenvalues was too large:
     Diagonalizing with lowered threshold

     Davidson diagonalization with overlap
     ethr =  7.11E-04,  avg # of iterations =  1.5

     total cpu time spent up to now is        2.4 secs

     total energy              =     -22.67247277 Ry
     Harris-Foulkes estimate   =     -22.69101629 Ry
     estimated scf accuracy    <       0.05663631 Ry

     iteration #  2     ecut=   120.00 Ry     beta=0.70
     Davidson diagonalization with overlap
     ethr =  7.08E-04,  avg # of iterations =  1.0

     total cpu time spent up to now is        3.0 secs

     total energy              =     -22.67491372 Ry
     Harris-Foulkes estimate   =     -22.67532361 Ry
     estimated scf accuracy    <       0.00225654 Ry

     iteration #  3     ecut=   120.00 Ry     beta=0.70
     Davidson diagonalization with overlap
     ethr =  2.82E-05,  avg # of iterations =  2.8

     total cpu time spent up to now is        3.7 secs

     total energy              =     -22.67565906 Ry
     Harris-Foulkes estimate   =     -22.67574200 Ry
     estimated scf accuracy    <       0.00015269 Ry

     iteration #  4     ecut=   120.00 Ry     beta=0.70
     Davidson diagonalization with overlap
     ethr =  1.91E-06,  avg # of iterations =  2.2

     total cpu time spent up to now is        4.5 secs

     total energy              =     -22.67568100 Ry
     Harris-Foulkes estimate   =     -22.67571497 Ry
     estimated scf accuracy    <       0.00006574 Ry

     iteration #  5     ecut=   120.00 Ry     beta=0.70
     Davidson diagonalization with overlap
     ethr =  8.22E-07,  avg # of iterations =  2.0

     total cpu time spent up to now is        5.2 secs

     total energy              =     -22.67568922 Ry
     Harris-Foulkes estimate   =     -22.67568925 Ry
     estimated scf accuracy    <       0.00000010 Ry

     iteration #  6     ecut=   120.00 Ry     beta=0.70
     Davidson diagonalization with overlap
     ethr =  1.28E-09,  avg # of iterations =  4.1

     total cpu time spent up to now is        6.2 secs

     total energy              =     -22.67568946 Ry
     Harris-Foulkes estimate   =     -22.67568947 Ry
     estimated scf accuracy    <       0.00000004 Ry

     iteration #  7     ecut=   120.00 Ry     beta=0.70
     Davidson diagonalization with overlap
     ethr =  4.92E-10,  avg # of iterations =  1.0

     total cpu time spent up to now is        6.8 secs

     End of self-consistent calculation

          k = 0.0000 0.0000 0.0000 (  5961 PWs)   bands (ev):

    -5.7606   6.3580   6.3580   6.3580

          k =-0.1667 0.1667-0.1667 (  5907 PWs)   bands (ev):

    -5.3924   3.9416   5.8944   5.8944

          k =-0.3333 0.3333-0.3333 (  5888 PWs)   bands (ev):

    -4.3538   0.9334   5.3363   5.3363

          k = 0.5000-0.5000 0.5000 (  5900 PWs)   bands (ev):

    -3.3647  -0.7479   5.1367   5.1367

          k = 0.0000 0.3333 0.0000 (  5914 PWs)   bands (ev):

    -5.2673   4.3298   5.1256   5.1256

          k =-0.1667 0.5000-0.1667 (  5894 PWs)   bands (ev):

    -4.4350   1.8737   4.3132   4.5627

          k = 0.6667-0.3333 0.6667 (  5888 PWs)   bands (ev):

    -3.2080  -0.3552   3.5111   4.5368

          k = 0.5000-0.1667 0.5000 (  5891 PWs)   bands (ev):

    -3.6064   0.2628   3.2260   5.0313

          k = 0.3333 0.0000 0.3333 (  5915 PWs)   bands (ev):

    -4.7921   2.6090   3.8594   5.7848

          k = 0.0000 0.6667 0.0000 (  5866 PWs)   bands (ev):

    -3.8194   1.3240   3.8752   3.8752

          k = 0.8333-0.1667 0.8333 (  5884 PWs)   bands (ev):

    -2.6281  -0.2585   2.6045   3.7375

          k = 0.6667-0.0000 0.6667 (  5902 PWs)   bands (ev):

    -2.4177  -0.4764   1.7930   4.1920

          k = 0.0000-1.0000 0.0000 (  5874 PWs)   bands (ev):

    -1.5343  -1.5343   3.4326   3.4326

          k = 0.6667-0.3333 1.0000 (  5895 PWs)   bands (ev):

    -3.4226   0.6734   2.6703   3.9884

          k = 0.5000-0.1667 0.8333 (  5872 PWs)   bands (ev):

    -2.4063  -0.5604   2.2229   3.5022

          k =-0.3333-1.0000 0.0000 (  5888 PWs)   bands (ev):

    -1.4039  -1.4039   2.5887   2.5887

!    total energy              =     -22.67568946 Ry
     Harris-Foulkes estimate   =     -22.67568946 Ry
     estimated scf accuracy    <          6.5E-09 Ry

     The total energy is the sum of the following terms:

     one-electron contribution =       5.31934024 Ry
     hartree contribution      =       1.06832684 Ry
     xc contribution           =     -12.16359796 Ry
     ewald contribution        =     -16.89975857 Ry

     convergence has been achieved in   7 iterations

     Forces acting on atoms (Ry/au):

     atom    1 type  1   force =     0.00000000   -0.00000000    0.00000000
     atom    2 type  1   force =     0.00000000    0.00000000   -0.00000000

     Total force =     0.000000     Total SCF correction =     0.000000


     entering subroutine stress ...

          total   stress  (Ry/bohr**3)                   (kbar)     P=   20.19
   0.00013725   0.00000000   0.00000000         20.19      0.00      0.00
   0.00000000   0.00013725  -0.00000000          0.00     20.19     -0.00
   0.00000000  -0.00000000   0.00013725          0.00     -0.00     20.19


     Writing output data file si.save
 
     init_run     :      0.71s CPU      0.75s WALL (       1 calls)
     electrons    :      5.39s CPU      5.60s WALL (       1 calls)
     forces       :      0.16s CPU      0.16s WALL (       1 calls)
     stress       :      0.51s CPU      0.52s WALL (       1 calls)

     Called by init_run:
     wfcinit      :      0.30s CPU      0.32s WALL (       1 calls)
     potinit      :      0.05s CPU      0.05s WALL (       1 calls)

     Called by electrons:
     c_bands      :      3.74s CPU      3.88s WALL (       8 calls)
     sum_band     :      0.93s CPU      0.97s WALL (       8 calls)
     v_of_rho     :      0.19s CPU      0.19s WALL (       8 calls)
     newd         :      0.51s CPU      0.53s WALL (       8 calls)
     mix_rho      :      0.02s CPU      0.02s WALL (       8 calls)

     Called by c_bands:
     init_us_2    :      0.15s CPU      0.14s WALL (     304 calls)
     cegterg      :      3.12s CPU      3.25s WALL (     128 calls)

     Called by *egterg:
     h_psi        :      3.12s CPU      3.23s WALL (     408 calls)
     s_psi        :      0.09s CPU      0.08s WALL (     408 calls)
     g_psi        :      0.01s CPU      0.01s WALL (     264 calls)
     cdiaghg      :      0.06s CPU      0.05s WALL (     376 calls)

     Called by h_psi:
     add_vuspsi   :      0.08s CPU      0.09s WALL (     408 calls)

     General routines
     calbec       :      0.19s CPU      0.18s WALL (     568 calls)
     fft          :      0.16s CPU      0.16s WALL (     131 calls)
     fftw         :      3.00s CPU      3.12s WALL (    3624 calls)
     davcio       :      0.02s CPU      0.02s WALL (     432 calls)
 
     Parallel routines
     fft_scatter  :      1.17s CPU      1.18s WALL (    3755 calls)
 
     PWSCF        :     7.28s CPU         7.61s WALL

 
   This run was terminated on:  11:18:17  31Aug2016            

=------------------------------------------------------------------------------=
   JOB DONE.
=------------------------------------------------------------------------------=
