
     Program PHONON v.5.2.0 starts on 18Sep2015 at 14:30:33 

     This program is part of the open-source Quantum ESPRESSO suite
     for quantum simulation of materials; please cite
         "P. Giannozzi et al., J. Phys.:Condens. Matter 21 395502 (2009);
          URL http://www.quantum-espresso.org", 
     in publications or presentations arising from this work. More details at
     http://www.quantum-espresso.org/quote

     Parallel version (MPI), running on     2 processors
     R & G space division:  proc/nbgrp/npool/nimage =       2

     Reading data from directory:
     ./out/Si.save

   Info: using nr1, nr2, nr3 values from input

   Info: using nr1, nr2, nr3 values from input

     IMPORTANT: XC functional enforced from input :
     Exchange-correlation      =  SLA  PZ   NOGX NOGC ( 1  1  0  0 0 0)
     Any further DFT definition will be discarded
     Please, verify this is what you really want

 
     Parallelization info
     --------------------
     sticks:   dense  smooth     PW     G-vecs:    dense   smooth      PW
     Min         117     117     36                 1138     1138     205
     Max         118     118     37                 1139     1139     206
     Sum         235     235     73                 2277     2277     411
 


     Dynamical matrices for ( 4, 4, 4)  uniform grid of q-points
     (   8q-points):
       N         xq(1)         xq(2)         xq(3) 
       1   0.000000000   0.000000000   0.000000000
       2  -0.250000000   0.250000000  -0.250000000
       3   0.500000000  -0.500000000   0.500000000
       4   0.000000000   0.500000000   0.000000000
       5   0.750000000  -0.250000000   0.750000000
       6   0.500000000   0.000000000   0.500000000
       7   0.000000000  -1.000000000   0.000000000
       8  -0.500000000  -1.000000000   0.000000000

     Calculation of q =    0.0000000   0.0000000   0.0000000

                                                                                

     bravais-lattice index     =            2
     lattice parameter (alat)  =      10.2000  a.u.
     unit-cell volume          =     265.3020 (a.u.)^3
     number of atoms/cell      =            2
     number of atomic types    =            1
     kinetic-energy cut-off    =      16.0000  Ry
     charge density cut-off    =      64.0000  Ry
     convergence threshold     =      1.0E-14
     beta                      =       0.7000
     number of iterations used =            4
     Exchange-correlation      =  SLA  PZ   NOGX NOGC ( 1  1  0  0 0 0)


     celldm(1)=   10.20000  celldm(2)=    0.00000  celldm(3)=    0.00000
     celldm(4)=    0.00000  celldm(5)=    0.00000  celldm(6)=    0.00000

     crystal axes: (cart. coord. in units of alat)
               a(1) = ( -0.5000  0.0000  0.5000 )  
               a(2) = (  0.0000  0.5000  0.5000 )  
               a(3) = ( -0.5000  0.5000  0.0000 )  

     reciprocal axes: (cart. coord. in units 2 pi/alat)
               b(1) = ( -1.0000 -1.0000  1.0000 )  
               b(2) = (  1.0000  1.0000  1.0000 )  
               b(3) = ( -1.0000  1.0000 -1.0000 )  


     Atoms inside the unit cell: 

     Cartesian axes

     site n.  atom      mass           positions (alat units)
        1     Si  28.0855   tau(    1) = (    0.00000    0.00000    0.00000  )
        2     Si  28.0855   tau(    2) = (    0.25000    0.25000    0.25000  )

     Computing dynamical matrix for 
                    q = (   0.0000000   0.0000000   0.0000000 )
 
     49 Sym.Ops. (with q -> -q+G )


     G cutoff =  168.6633  (   1139 G-vectors)     FFT grid: ( 20, 20, 20)
     number of k points=    10

     PseudoPot. # 1 for Si read from file:
     ./Si.vbc.UPF
     MD5 check sum: bcd8ae23180a2f07cc8655fe7dcd9644
     Pseudo is Norm-conserving, Zval =  4.0
     Generated by new atomic code, or converted to UPF format
     Using radial grid of  431 points,  2 beta functions with: 
                l(1) =   0
                l(2) =   1

     Mode symmetry, O_h (m-3m)  point group:


     Electric field:
     Dielectric constant
     Born effective charges in two ways 


     Atomic displacements:
     There are   2 irreducible representations

     Representation     1      3 modes -T_2g G_25' G_5+  To be done

     Representation     2      3 modes -T_1u G_15  G_4-  To be done



     Alpha used in Ewald sum =   0.7000
     PHONON       :     0.61s CPU         0.78s WALL


     Electric Fields Calculation

      iter #   1 total cpu time :     1.5 secs   av.it.:   5.5
      thresh= 1.000E-02 alpha_mix =  0.700 |ddv_scf|^2 =  8.815E-07

      iter #   2 total cpu time :     1.8 secs   av.it.:   9.2
      thresh= 9.389E-05 alpha_mix =  0.700 |ddv_scf|^2 =  3.308E-08

      iter #   3 total cpu time :     2.2 secs   av.it.:   9.1
      thresh= 1.819E-05 alpha_mix =  0.700 |ddv_scf|^2 =  3.484E-10

      iter #   4 total cpu time :     2.5 secs   av.it.:   9.3
      thresh= 1.867E-06 alpha_mix =  0.700 |ddv_scf|^2 =  1.475E-12

      iter #   5 total cpu time :     2.9 secs   av.it.:   9.0
      thresh= 1.214E-07 alpha_mix =  0.700 |ddv_scf|^2 =  1.934E-15

     End of electric fields calculation

          Dielectric constant in cartesian axis 

          (      13.733966432      -0.000000000       0.000000000 )
          (      -0.000000000      13.733966432       0.000000000 )
          (       0.000000000       0.000000000      13.733966432 )

          Effective charges (d Force / dE) in cartesian axis

           atom      1   Si 
      Ex  (       -0.07415        0.00000        0.00000 )
      Ey  (        0.00000       -0.07415       -0.00000 )
      Ez  (        0.00000       -0.00000       -0.07415 )
           atom      2   Si 
      Ex  (       -0.07415       -0.00000        0.00000 )
      Ey  (       -0.00000       -0.07415        0.00000 )
      Ez  (        0.00000       -0.00000       -0.07415 )


     Representation #  1 modes #   1  2  3

     Self-consistent Calculation

      iter #   1 total cpu time :     3.2 secs   av.it.:   5.0
      thresh= 1.000E-02 alpha_mix =  0.700 |ddv_scf|^2 =  1.884E-07

      iter #   2 total cpu time :     3.6 secs   av.it.:   9.5
      thresh= 4.341E-05 alpha_mix =  0.700 |ddv_scf|^2 =  3.179E-09

      iter #   3 total cpu time :     4.0 secs   av.it.:   9.4
      thresh= 5.638E-06 alpha_mix =  0.700 |ddv_scf|^2 =  2.782E-11

      iter #   4 total cpu time :     4.3 secs   av.it.:   8.8
      thresh= 5.274E-07 alpha_mix =  0.700 |ddv_scf|^2 =  3.205E-14

      iter #   5 total cpu time :     4.7 secs   av.it.:   9.4
      thresh= 1.790E-08 alpha_mix =  0.700 |ddv_scf|^2 =  3.319E-16

     End of self-consistent calculation

     Convergence has been achieved 


     Representation #  2 modes #   4  5  6

     Self-consistent Calculation

      iter #   1 total cpu time :     5.0 secs   av.it.:   5.0
      thresh= 1.000E-02 alpha_mix =  0.700 |ddv_scf|^2 =  1.326E-07

      iter #   2 total cpu time :     5.3 secs   av.it.:   9.5
      thresh= 3.641E-05 alpha_mix =  0.700 |ddv_scf|^2 =  4.677E-09

      iter #   3 total cpu time :     6.0 secs   av.it.:   9.3
      thresh= 6.839E-06 alpha_mix =  0.700 |ddv_scf|^2 =  3.874E-11

      iter #   4 total cpu time :     6.4 secs   av.it.:   9.3
      thresh= 6.225E-07 alpha_mix =  0.700 |ddv_scf|^2 =  8.985E-14

      iter #   5 total cpu time :     6.7 secs   av.it.:   9.5
      thresh= 2.997E-08 alpha_mix =  0.700 |ddv_scf|^2 =  1.232E-15

     End of self-consistent calculation

     Convergence has been achieved 
 
     Number of q in the star =    1
     List of q in the star:
          1   0.000000000   0.000000000   0.000000000

          Dielectric constant in cartesian axis 

          (      13.733966432      -0.000000000       0.000000000 )
          (      -0.000000000      13.733966432       0.000000000 )
          (       0.000000000       0.000000000      13.733966432 )

          Effective charges (d Force / dE) in cartesian axis

           atom      1   Si 
      Ex  (       -0.07415        0.00000        0.00000 )
      Ey  (        0.00000       -0.07415       -0.00000 )
      Ez  (        0.00000       -0.00000       -0.07415 )
           atom      2   Si 
      Ex  (       -0.07415       -0.00000        0.00000 )
      Ey  (       -0.00000       -0.07415        0.00000 )
      Ez  (        0.00000       -0.00000       -0.07415 )

          Effective charges (d P / du) in cartesian axis 

           atom      1   Si 
      Px  (       -0.07417       -0.00000       -0.00000 )
      Py  (       -0.00000       -0.07417        0.00000 )
      Pz  (       -0.00000        0.00000       -0.07417 )
           atom      2   Si 
      Px  (       -0.07417        0.00000        0.00000 )
      Py  (       -0.00000       -0.07417        0.00000 )
      Pz  (        0.00000        0.00000       -0.07417 )

     Diagonalizing the dynamical matrix

     q = (    0.000000000   0.000000000   0.000000000 ) 

 **************************************************************************
     freq (    1) =       0.074375 [THz] =       2.480880 [cm-1]
     freq (    2) =       0.074375 [THz] =       2.480880 [cm-1]
     freq (    3) =       0.074375 [THz] =       2.480880 [cm-1]
     freq (    4) =      15.474507 [THz] =     516.174002 [cm-1]
     freq (    5) =      15.474507 [THz] =     516.174002 [cm-1]
     freq (    6) =      15.474507 [THz] =     516.174002 [cm-1]
 **************************************************************************

     Mode symmetry, O_h (m-3m)  point group:

     freq (  1 -  3) =          2.5  [cm-1]   --> T_1u G_15  G_4- I  
     freq (  4 -  6) =        516.2  [cm-1]   --> T_2g G_25' G_5+ R  

     Calculation of q =   -0.2500000   0.2500000  -0.2500000
 
     Parallelization info
     --------------------
     sticks:   dense  smooth     PW     G-vecs:    dense   smooth      PW
     Min         117     117     42                 1138     1138     264
     Max         118     118     43                 1139     1139     267
     Sum         235     235     85                 2277     2277     531
 


     bravais-lattice index     =            2
     lattice parameter (alat)  =      10.2000  a.u.
     unit-cell volume          =     265.3020 (a.u.)^3
     number of atoms/cell      =            2
     number of atomic types    =            1
     number of electrons       =         8.00
     number of Kohn-Sham states=            4
     kinetic-energy cutoff     =      16.0000  Ry
     charge density cutoff     =      64.0000  Ry
     Exchange-correlation      =  SLA  PZ   NOGX NOGC ( 1  1  0  0 0 0)

     celldm(1)=  10.200000  celldm(2)=   0.000000  celldm(3)=   0.000000
     celldm(4)=   0.000000  celldm(5)=   0.000000  celldm(6)=   0.000000

     crystal axes: (cart. coord. in units of alat)
               a(1) = (  -0.500000   0.000000   0.500000 )  
               a(2) = (   0.000000   0.500000   0.500000 )  
               a(3) = (  -0.500000   0.500000   0.000000 )  

     reciprocal axes: (cart. coord. in units 2 pi/alat)
               b(1) = ( -1.000000 -1.000000  1.000000 )  
               b(2) = (  1.000000  1.000000  1.000000 )  
               b(3) = ( -1.000000  1.000000 -1.000000 )  


     PseudoPot. # 1 for Si read from file:
     ./Si.vbc.UPF
     MD5 check sum: bcd8ae23180a2f07cc8655fe7dcd9644
     Pseudo is Norm-conserving, Zval =  4.0
     Generated by new atomic code, or converted to UPF format
     Using radial grid of  431 points,  2 beta functions with: 
                l(1) =   0
                l(2) =   1

     atomic species   valence    mass     pseudopotential
        Si             4.00    28.08550     Si( 1.00)

     48 Sym. Ops., with inversion, found



   Cartesian axes

     site n.     atom                  positions (alat units)
         1           Si  tau(   1) = (   0.0000000   0.0000000   0.0000000  )
         2           Si  tau(   2) = (   0.2500000   0.2500000   0.2500000  )

     number of k points=   120

     Number of k-points >= 100: set verbosity='high' to print them.

     Dense  grid:     2277 G-vectors     FFT dimensions: (  20,  20,  20)

     Largest allocated arrays     est. size (Mb)     dimensions
        Kohn-Sham Wavefunctions         0.01 Mb     (     149,    4)
        NL pseudopotentials             0.02 Mb     (     149,    8)
        Each V/rho on FFT grid          0.06 Mb     (    4000)
        Each G-vector array             0.01 Mb     (    1139)
        G-vector shells                 0.00 Mb     (      58)
     Largest temporary arrays     est. size (Mb)     dimensions
        Auxiliary wavefunctions         0.04 Mb     (     149,   16)
        Each subspace H/S matrix        0.00 Mb     (      16,   16)
        Each <psi_i|beta_j> matrix      0.00 Mb     (       8,    4)

     The potential is recalculated from file :
     ./out/_ph0/Si.save/charge-density.dat

     Starting wfc are    8 atomic wfcs

     Band Structure Calculation
     Davidson diagonalization with overlap

     ethr =  1.25E-10,  avg # of iterations = 11.4

     total cpu time spent up to now is        1.5 secs

     End of band structure calculation

     Number of k-points >= 100: set verbosity='high' to print the bands.

     highest occupied level (ev):     5.9601

     Writing output data file Si.save

                                                                                

     bravais-lattice index     =            2
     lattice parameter (alat)  =      10.2000  a.u.
     unit-cell volume          =     265.3020 (a.u.)^3
     number of atoms/cell      =            2
     number of atomic types    =            1
     kinetic-energy cut-off    =      16.0000  Ry
     charge density cut-off    =      64.0000  Ry
     convergence threshold     =      1.0E-14
     beta                      =       0.7000
     number of iterations used =            4
     Exchange-correlation      =  SLA  PZ   NOGX NOGC ( 1  1  0  0 0 0)


     celldm(1)=   10.20000  celldm(2)=    0.00000  celldm(3)=    0.00000
     celldm(4)=    0.00000  celldm(5)=    0.00000  celldm(6)=    0.00000

     crystal axes: (cart. coord. in units of alat)
               a(1) = ( -0.5000  0.0000  0.5000 )  
               a(2) = (  0.0000  0.5000  0.5000 )  
               a(3) = ( -0.5000  0.5000  0.0000 )  

     reciprocal axes: (cart. coord. in units 2 pi/alat)
               b(1) = ( -1.0000 -1.0000  1.0000 )  
               b(2) = (  1.0000  1.0000  1.0000 )  
               b(3) = ( -1.0000  1.0000 -1.0000 )  


     Atoms inside the unit cell: 

     Cartesian axes

     site n.  atom      mass           positions (alat units)
        1     Si  28.0855   tau(    1) = (    0.00000    0.00000    0.00000  )
        2     Si  28.0855   tau(    2) = (    0.25000    0.25000    0.25000  )

     Computing dynamical matrix for 
                    q = (  -0.2500000   0.2500000  -0.2500000 )
 
      6 Sym.Ops. (no q -> -q+G )


     G cutoff =  168.6633  (   1139 G-vectors)     FFT grid: ( 20, 20, 20)
     number of k points=   120

     PseudoPot. # 1 for Si read from file:
     ./Si.vbc.UPF
     MD5 check sum: bcd8ae23180a2f07cc8655fe7dcd9644
     Pseudo is Norm-conserving, Zval =  4.0
     Generated by new atomic code, or converted to UPF format
     Using radial grid of  431 points,  2 beta functions with: 
                l(1) =   0
                l(2) =   1

     Mode symmetry, C_3v (3m)   point group:


     Atomic displacements:
     There are   4 irreducible representations

     Representation     1      1 modes -A_1  L_1  To be done

     Representation     2      1 modes -A_1  L_1  To be done

     Representation     3      2 modes -E    L_3  To be done

     Representation     4      2 modes -E    L_3  To be done



     Alpha used in Ewald sum =   0.7000
     PHONON       :     7.34s CPU         8.66s WALL



     Representation #  1 mode #   1

     Self-consistent Calculation

      iter #   1 total cpu time :     9.1 secs   av.it.:   5.5
      thresh= 1.000E-02 alpha_mix =  0.700 |ddv_scf|^2 =  2.629E-03

      iter #   2 total cpu time :     9.6 secs   av.it.:   7.0
      thresh= 5.128E-03 alpha_mix =  0.700 |ddv_scf|^2 =  4.021E-02

      iter #   3 total cpu time :    10.0 secs   av.it.:   6.2
      thresh= 1.000E-02 alpha_mix =  0.700 |ddv_scf|^2 =  1.649E-06

      iter #   4 total cpu time :    10.5 secs   av.it.:   7.5
      thresh= 1.284E-04 alpha_mix =  0.700 |ddv_scf|^2 =  1.560E-07

      iter #   5 total cpu time :    11.0 secs   av.it.:   7.2
      thresh= 3.950E-05 alpha_mix =  0.700 |ddv_scf|^2 =  4.204E-10

      iter #   6 total cpu time :    11.5 secs   av.it.:   7.5
      thresh= 2.050E-06 alpha_mix =  0.700 |ddv_scf|^2 =  5.413E-10

      iter #   7 total cpu time :    12.0 secs   av.it.:   6.2
      thresh= 2.327E-06 alpha_mix =  0.700 |ddv_scf|^2 =  6.790E-11

      iter #   8 total cpu time :    12.5 secs   av.it.:   6.8
      thresh= 8.240E-07 alpha_mix =  0.700 |ddv_scf|^2 =  5.824E-13

      iter #   9 total cpu time :    13.0 secs   av.it.:   6.9
      thresh= 7.632E-08 alpha_mix =  0.700 |ddv_scf|^2 =  3.384E-14

      iter #  10 total cpu time :    13.4 secs   av.it.:   7.2
      thresh= 1.840E-08 alpha_mix =  0.700 |ddv_scf|^2 =  1.160E-15

     End of self-consistent calculation

     Convergence has been achieved 


     Representation #  2 mode #   2

     Self-consistent Calculation

      iter #   1 total cpu time :    14.3 secs   av.it.:   5.5
      thresh= 1.000E-02 alpha_mix =  0.700 |ddv_scf|^2 =  2.629E-03

      iter #   2 total cpu time :    14.8 secs   av.it.:   7.0
      thresh= 5.128E-03 alpha_mix =  0.700 |ddv_scf|^2 =  4.021E-02

      iter #   3 total cpu time :    15.2 secs   av.it.:   6.2
      thresh= 1.000E-02 alpha_mix =  0.700 |ddv_scf|^2 =  1.649E-06

      iter #   4 total cpu time :    15.8 secs   av.it.:   7.5
      thresh= 1.284E-04 alpha_mix =  0.700 |ddv_scf|^2 =  1.560E-07

      iter #   5 total cpu time :    16.3 secs   av.it.:   7.2
      thresh= 3.950E-05 alpha_mix =  0.700 |ddv_scf|^2 =  4.204E-10

      iter #   6 total cpu time :    16.8 secs   av.it.:   7.5
      thresh= 2.050E-06 alpha_mix =  0.700 |ddv_scf|^2 =  5.413E-10

      iter #   7 total cpu time :    17.2 secs   av.it.:   6.2
      thresh= 2.327E-06 alpha_mix =  0.700 |ddv_scf|^2 =  6.790E-11

      iter #   8 total cpu time :    17.7 secs   av.it.:   6.8
      thresh= 8.240E-07 alpha_mix =  0.700 |ddv_scf|^2 =  5.824E-13

      iter #   9 total cpu time :    18.2 secs   av.it.:   6.9
      thresh= 7.632E-08 alpha_mix =  0.700 |ddv_scf|^2 =  3.384E-14

      iter #  10 total cpu time :    18.7 secs   av.it.:   7.2
      thresh= 1.840E-08 alpha_mix =  0.700 |ddv_scf|^2 =  1.160E-15

     End of self-consistent calculation

     Convergence has been achieved 


     Representation #  3 modes #   3  4

     Self-consistent Calculation

      iter #   1 total cpu time :    19.5 secs   av.it.:   5.1
      thresh= 1.000E-02 alpha_mix =  0.700 |ddv_scf|^2 =  5.066E-07

      iter #   2 total cpu time :    20.7 secs   av.it.:   9.3
      thresh= 7.118E-05 alpha_mix =  0.700 |ddv_scf|^2 =  2.713E-08

      iter #   3 total cpu time :    21.8 secs   av.it.:   9.0
      thresh= 1.647E-05 alpha_mix =  0.700 |ddv_scf|^2 =  1.124E-10

      iter #   4 total cpu time :    23.0 secs   av.it.:   8.8
      thresh= 1.060E-06 alpha_mix =  0.700 |ddv_scf|^2 =  7.422E-12

      iter #   5 total cpu time :    24.1 secs   av.it.:   8.7
      thresh= 2.724E-07 alpha_mix =  0.700 |ddv_scf|^2 =  1.498E-14

      iter #   6 total cpu time :    25.3 secs   av.it.:   9.3
      thresh= 1.224E-08 alpha_mix =  0.700 |ddv_scf|^2 =  2.354E-16

     End of self-consistent calculation

     Convergence has been achieved 


     Representation #  4 modes #   5  6

     Self-consistent Calculation

      iter #   1 total cpu time :    26.1 secs   av.it.:   5.1
      thresh= 1.000E-02 alpha_mix =  0.700 |ddv_scf|^2 =  5.063E-07

      iter #   2 total cpu time :    27.3 secs   av.it.:   9.4
      thresh= 7.115E-05 alpha_mix =  0.700 |ddv_scf|^2 =  2.701E-08

      iter #   3 total cpu time :    28.4 secs   av.it.:   9.2
      thresh= 1.644E-05 alpha_mix =  0.700 |ddv_scf|^2 =  1.127E-10

      iter #   4 total cpu time :    29.6 secs   av.it.:   9.0
      thresh= 1.062E-06 alpha_mix =  0.700 |ddv_scf|^2 =  7.416E-12

      iter #   5 total cpu time :    30.7 secs   av.it.:   8.8
      thresh= 2.723E-07 alpha_mix =  0.700 |ddv_scf|^2 =  1.511E-14

      iter #   6 total cpu time :    31.9 secs   av.it.:   9.3
      thresh= 1.229E-08 alpha_mix =  0.700 |ddv_scf|^2 =  2.374E-16

     End of self-consistent calculation

     Convergence has been achieved 
 
     Number of q in the star =    8
     List of q in the star:
          1  -0.250000000   0.250000000  -0.250000000
          2   0.250000000  -0.250000000  -0.250000000
          3   0.250000000  -0.250000000   0.250000000
          4   0.250000000   0.250000000   0.250000000
          5  -0.250000000  -0.250000000  -0.250000000
          6  -0.250000000  -0.250000000   0.250000000
          7  -0.250000000   0.250000000   0.250000000
          8   0.250000000   0.250000000  -0.250000000

     Diagonalizing the dynamical matrix

     q = (   -0.250000000   0.250000000  -0.250000000 ) 

 **************************************************************************
     freq (    1) =       2.848629 [THz] =      95.020028 [cm-1]
     freq (    2) =       2.848629 [THz] =      95.020028 [cm-1]
     freq (    3) =       6.998172 [THz] =     233.433907 [cm-1]
     freq (    4) =      14.634864 [THz] =     488.166504 [cm-1]
     freq (    5) =      14.952156 [THz] =     498.750241 [cm-1]
     freq (    6) =      14.952156 [THz] =     498.750241 [cm-1]
 **************************************************************************

     Mode symmetry, C_3v (3m)   point group:

     freq (  1 -  2) =         95.0  [cm-1]   --> E    L_3           
     freq (  3 -  3) =        233.4  [cm-1]   --> A_1  L_1           
     freq (  4 -  4) =        488.2  [cm-1]   --> A_1  L_1           
     freq (  5 -  6) =        498.8  [cm-1]   --> E    L_3           

     Calculation of q =    0.5000000  -0.5000000   0.5000000
 
     Parallelization info
     --------------------
     sticks:   dense  smooth     PW     G-vecs:    dense   smooth      PW
     Min         117     117     45                 1138     1138     280
     Max         118     118     46                 1139     1139     281
     Sum         235     235     91                 2277     2277     561
 


     bravais-lattice index     =            2
     lattice parameter (alat)  =      10.2000  a.u.
     unit-cell volume          =     265.3020 (a.u.)^3
     number of atoms/cell      =            2
     number of atomic types    =            1
     number of electrons       =         8.00
     number of Kohn-Sham states=            4
     kinetic-energy cutoff     =      16.0000  Ry
     charge density cutoff     =      64.0000  Ry
     Exchange-correlation      =  SLA  PZ   NOGX NOGC ( 1  1  0  0 0 0)

     celldm(1)=  10.200000  celldm(2)=   0.000000  celldm(3)=   0.000000
     celldm(4)=   0.000000  celldm(5)=   0.000000  celldm(6)=   0.000000

     crystal axes: (cart. coord. in units of alat)
               a(1) = (  -0.500000   0.000000   0.500000 )  
               a(2) = (   0.000000   0.500000   0.500000 )  
               a(3) = (  -0.500000   0.500000   0.000000 )  

     reciprocal axes: (cart. coord. in units 2 pi/alat)
               b(1) = ( -1.000000 -1.000000  1.000000 )  
               b(2) = (  1.000000  1.000000  1.000000 )  
               b(3) = ( -1.000000  1.000000 -1.000000 )  


     PseudoPot. # 1 for Si read from file:
     ./Si.vbc.UPF
     MD5 check sum: bcd8ae23180a2f07cc8655fe7dcd9644
     Pseudo is Norm-conserving, Zval =  4.0
     Generated by new atomic code, or converted to UPF format
     Using radial grid of  431 points,  2 beta functions with: 
                l(1) =   0
                l(2) =   1

     atomic species   valence    mass     pseudopotential
        Si             4.00    28.08550     Si( 1.00)

     48 Sym. Ops., with inversion, found



   Cartesian axes

     site n.     atom                  positions (alat units)
         1           Si  tau(   1) = (   0.0000000   0.0000000   0.0000000  )
         2           Si  tau(   2) = (   0.2500000   0.2500000   0.2500000  )

     number of k points=    60
                       cart. coord. in units 2pi/alat
        k(    1) = (   0.1250000   0.1250000   0.1250000), wk =   0.0468750
        k(    2) = (   0.6250000  -0.3750000   0.6250000), wk =   0.0000000
        k(    3) = (   0.1250000   0.1250000   0.3750000), wk =   0.0937500
        k(    4) = (   0.6250000  -0.3750000   0.8750000), wk =   0.0000000
        k(    5) = (   0.1250000   0.1250000   0.6250000), wk =   0.0937500
        k(    6) = (   0.6250000  -0.3750000   1.1250000), wk =   0.0000000
        k(    7) = (   0.1250000   0.1250000   0.8750000), wk =   0.0937500
        k(    8) = (   0.6250000  -0.3750000   1.3750000), wk =   0.0000000
        k(    9) = (   0.1250000   0.3750000   0.3750000), wk =   0.0937500
        k(   10) = (   0.6250000  -0.1250000   0.8750000), wk =   0.0000000
        k(   11) = (   0.1250000   0.3750000   0.6250000), wk =   0.0937500
        k(   12) = (   0.6250000  -0.1250000   1.1250000), wk =   0.0000000
        k(   13) = (   0.1250000   0.3750000   0.8750000), wk =   0.0937500
        k(   14) = (   0.6250000  -0.1250000   1.3750000), wk =   0.0000000
        k(   15) = (   0.1250000   0.6250000   0.6250000), wk =   0.0937500
        k(   16) = (   0.6250000   0.1250000   1.1250000), wk =   0.0000000
        k(   17) = (   0.3750000   0.3750000   0.3750000), wk =   0.0468750
        k(   18) = (   0.8750000  -0.1250000   0.8750000), wk =   0.0000000
        k(   19) = (   0.3750000   0.3750000   0.6250000), wk =   0.0937500
        k(   20) = (   0.8750000  -0.1250000   1.1250000), wk =   0.0000000
        k(   21) = (   0.1250000  -0.1250000   0.1250000), wk =   0.0156250
        k(   22) = (   0.6250000  -0.6250000   0.6250000), wk =   0.0000000
        k(   23) = (   0.1250000  -0.1250000   0.3750000), wk =   0.0468750
        k(   24) = (   0.6250000  -0.6250000   0.8750000), wk =   0.0000000
        k(   25) = (  -0.3750000  -0.1250000   0.1250000), wk =   0.0468750
        k(   26) = (   0.1250000  -0.6250000   0.6250000), wk =   0.0000000
        k(   27) = (   0.1250000  -0.1250000   0.6250000), wk =   0.0468750
        k(   28) = (   0.6250000  -0.6250000   1.1250000), wk =   0.0000000
        k(   29) = (  -0.6250000  -0.1250000   0.1250000), wk =   0.0468750
        k(   30) = (  -0.1250000  -0.6250000   0.6250000), wk =   0.0000000
        k(   31) = (   0.1250000  -0.1250000   0.8750000), wk =   0.0468750
        k(   32) = (   0.6250000  -0.6250000   1.3750000), wk =   0.0000000
        k(   33) = (  -0.8750000  -0.1250000   0.1250000), wk =   0.0468750
        k(   34) = (  -0.3750000  -0.6250000   0.6250000), wk =   0.0000000
        k(   35) = (   0.1250000  -0.3750000   0.3750000), wk =   0.0468750
        k(   36) = (   0.6250000  -0.8750000   0.8750000), wk =   0.0000000
        k(   37) = (   0.3750000  -0.3750000  -0.1250000), wk =   0.0468750
        k(   38) = (   0.8750000  -0.8750000   0.3750000), wk =   0.0000000
        k(   39) = (   0.1250000  -0.3750000   0.6250000), wk =   0.0937500
        k(   40) = (   0.6250000  -0.8750000   1.1250000), wk =   0.0000000
        k(   41) = (  -0.6250000  -0.3750000   0.1250000), wk =   0.0937500
        k(   42) = (  -0.1250000  -0.8750000   0.6250000), wk =   0.0000000
        k(   43) = (   0.6250000  -0.3750000  -0.1250000), wk =   0.0937500
        k(   44) = (   1.1250000  -0.8750000   0.3750000), wk =   0.0000000
        k(   45) = (   0.1250000  -0.3750000   0.8750000), wk =   0.0937500
        k(   46) = (   0.6250000  -0.8750000   1.3750000), wk =   0.0000000
        k(   47) = (  -0.8750000  -0.3750000   0.1250000), wk =   0.0937500
        k(   48) = (  -0.3750000  -0.8750000   0.6250000), wk =   0.0000000
        k(   49) = (   0.8750000  -0.3750000  -0.1250000), wk =   0.0937500
        k(   50) = (   1.3750000  -0.8750000   0.3750000), wk =   0.0000000
        k(   51) = (   0.1250000  -0.6250000   0.6250000), wk =   0.0468750
        k(   52) = (   0.6250000  -1.1250000   1.1250000), wk =   0.0000000
        k(   53) = (   0.6250000  -0.6250000  -0.1250000), wk =   0.0468750
        k(   54) = (   1.1250000  -1.1250000   0.3750000), wk =   0.0000000
        k(   55) = (   0.3750000  -0.3750000   0.3750000), wk =   0.0156250
        k(   56) = (   0.8750000  -0.8750000   0.8750000), wk =   0.0000000
        k(   57) = (   0.3750000  -0.3750000   0.6250000), wk =   0.0468750
        k(   58) = (   0.8750000  -0.8750000   1.1250000), wk =   0.0000000
        k(   59) = (  -0.6250000  -0.3750000   0.3750000), wk =   0.0468750
        k(   60) = (  -0.1250000  -0.8750000   0.8750000), wk =   0.0000000

     Dense  grid:     2277 G-vectors     FFT dimensions: (  20,  20,  20)

     Largest allocated arrays     est. size (Mb)     dimensions
        Kohn-Sham Wavefunctions         0.01 Mb     (     150,    4)
        NL pseudopotentials             0.02 Mb     (     150,    8)
        Each V/rho on FFT grid          0.06 Mb     (    4000)
        Each G-vector array             0.01 Mb     (    1139)
        G-vector shells                 0.00 Mb     (      58)
     Largest temporary arrays     est. size (Mb)     dimensions
        Auxiliary wavefunctions         0.04 Mb     (     150,   16)
        Each subspace H/S matrix        0.00 Mb     (      16,   16)
        Each <psi_i|beta_j> matrix      0.00 Mb     (       8,    4)

     The potential is recalculated from file :
     ./out/_ph0/Si.save/charge-density.dat

     Starting wfc are    8 atomic wfcs

     Band Structure Calculation
     Davidson diagonalization with overlap

     ethr =  1.25E-10,  avg # of iterations = 11.4

     total cpu time spent up to now is        2.7 secs

     End of band structure calculation

          k = 0.1250 0.1250 0.1250 (   295 PWs)   bands (ev):

    -5.5991   4.6524   5.9601   5.9601

          k = 0.6250-0.3750 0.6250 (   281 PWs)   bands (ev):

    -3.3195  -0.5726   3.9395   4.6600

          k = 0.1250 0.1250 0.3750 (   293 PWs)   bands (ev):

    -5.0461   3.0247   4.9038   4.9946

          k = 0.6250-0.3750 0.8750 (   288 PWs)   bands (ev):

    -3.5383   0.3849   2.8610   4.2772

          k = 0.1250 0.1250 0.6250 (   289 PWs)   bands (ev):

    -3.9779   1.3239   3.5204   3.9946

          k = 0.6250-0.3750 1.1250 (   288 PWs)   bands (ev):

    -3.5383   0.3849   2.8610   4.2772

          k = 0.1250 0.1250 0.8750 (   286 PWs)   bands (ev):

    -2.4499  -0.5803   2.7288   3.5105

          k = 0.6250-0.3750 1.3750 (   281 PWs)   bands (ev):

    -3.3195  -0.5726   3.9395   4.6600

          k = 0.1250 0.3750 0.3750 (   292 PWs)   bands (ev):

    -4.5266   1.6005   3.8940   5.4660

          k = 0.6250-0.1250 0.8750 (   283 PWs)   bands (ev):

    -2.2583  -0.6913   2.0848   3.2152

          k = 0.1250 0.3750 0.6250 (   288 PWs)   bands (ev):

    -3.5383   0.3849   2.8610   4.2772

          k = 0.6250-0.1250 1.1250 (   283 PWs)   bands (ev):

    -2.2583  -0.6913   2.0848   3.2152

          k = 0.1250 0.3750 0.8750 (   283 PWs)   bands (ev):

    -2.2583  -0.6913   2.0848   3.2152

          k = 0.6250-0.1250 1.3750 (   286 PWs)   bands (ev):

    -2.8126  -0.4288   2.1661   4.3260

          k = 0.1250 0.6250 0.6250 (   286 PWs)   bands (ev):

    -2.8126  -0.4288   2.1661   4.3260

          k = 0.6250 0.1250 1.1250 (   283 PWs)   bands (ev):

    -2.2583  -0.6913   2.0848   3.2152

          k = 0.3750 0.3750 0.3750 (   281 PWs)   bands (ev):

    -4.0665   0.2415   5.1458   5.1458

          k = 0.8750-0.1250 0.8750 (   286 PWs)   bands (ev):

    -2.4499  -0.5803   2.7288   3.5105

          k = 0.3750 0.3750 0.6250 (   281 PWs)   bands (ev):

    -3.3195  -0.5726   3.9395   4.6600

          k = 0.8750-0.1250 1.1250 (   286 PWs)   bands (ev):

    -2.4499  -0.5803   2.7288   3.5105

          k = 0.1250-0.1250 0.1250 (   295 PWs)   bands (ev):

    -5.5991   4.6524   5.9601   5.9601

          k = 0.6250-0.6250 0.6250 (   281 PWs)   bands (ev):

    -4.0665   0.2415   5.1458   5.1458

          k = 0.1250-0.1250 0.3750 (   293 PWs)   bands (ev):

    -5.0461   3.0247   4.9038   4.9946

          k = 0.6250-0.6250 0.8750 (   292 PWs)   bands (ev):

    -4.5266   1.6005   3.8940   5.4660

          k =-0.3750-0.1250 0.1250 (   293 PWs)   bands (ev):

    -5.0461   3.0247   4.9038   4.9946

          k = 0.1250-0.6250 0.6250 (   286 PWs)   bands (ev):

    -2.8126  -0.4288   2.1661   4.3260

          k = 0.1250-0.1250 0.6250 (   289 PWs)   bands (ev):

    -3.9779   1.3239   3.5204   3.9946

          k = 0.6250-0.6250 1.1250 (   292 PWs)   bands (ev):

    -4.5266   1.6005   3.8940   5.4660

          k =-0.6250-0.1250 0.1250 (   289 PWs)   bands (ev):

    -3.9779   1.3239   3.5204   3.9946

          k =-0.1250-0.6250 0.6250 (   286 PWs)   bands (ev):

    -2.8126  -0.4288   2.1661   4.3260

          k = 0.1250-0.1250 0.8750 (   286 PWs)   bands (ev):

    -2.4499  -0.5803   2.7288   3.5105

          k = 0.6250-0.6250 1.3750 (   281 PWs)   bands (ev):

    -4.0665   0.2415   5.1458   5.1458

          k =-0.8750-0.1250 0.1250 (   286 PWs)   bands (ev):

    -2.4499  -0.5803   2.7288   3.5105

          k =-0.3750-0.6250 0.6250 (   281 PWs)   bands (ev):

    -3.3195  -0.5726   3.9395   4.6600

          k = 0.1250-0.3750 0.3750 (   292 PWs)   bands (ev):

    -4.5266   1.6005   3.8940   5.4660

          k = 0.6250-0.8750 0.8750 (   293 PWs)   bands (ev):

    -5.0461   3.0247   4.9038   4.9946

          k = 0.3750-0.3750-0.1250 (   292 PWs)   bands (ev):

    -4.5266   1.6005   3.8940   5.4660

          k = 0.8750-0.8750 0.3750 (   289 PWs)   bands (ev):

    -3.9779   1.3239   3.5204   3.9946

          k = 0.1250-0.3750 0.6250 (   288 PWs)   bands (ev):

    -3.5383   0.3849   2.8610   4.2772

          k = 0.6250-0.8750 1.1250 (   293 PWs)   bands (ev):

    -5.0461   3.0247   4.9038   4.9946

          k =-0.6250-0.3750 0.1250 (   288 PWs)   bands (ev):

    -3.5383   0.3849   2.8610   4.2772

          k =-0.1250-0.8750 0.6250 (   283 PWs)   bands (ev):

    -2.2583  -0.6913   2.0848   3.2152

          k = 0.6250-0.3750-0.1250 (   288 PWs)   bands (ev):

    -3.5383   0.3849   2.8610   4.2772

          k = 1.1250-0.8750 0.3750 (   289 PWs)   bands (ev):

    -3.9779   1.3239   3.5204   3.9946

          k = 0.1250-0.3750 0.8750 (   283 PWs)   bands (ev):

    -2.2583  -0.6913   2.0848   3.2152

          k = 0.6250-0.8750 1.3750 (   292 PWs)   bands (ev):

    -4.5266   1.6005   3.8940   5.4660

          k =-0.8750-0.3750 0.1250 (   283 PWs)   bands (ev):

    -2.2583  -0.6913   2.0848   3.2152

          k =-0.3750-0.8750 0.6250 (   288 PWs)   bands (ev):

    -3.5383   0.3849   2.8610   4.2772

          k = 0.8750-0.3750-0.1250 (   283 PWs)   bands (ev):

    -2.2583  -0.6913   2.0848   3.2152

          k = 1.3750-0.8750 0.3750 (   288 PWs)   bands (ev):

    -3.5383   0.3849   2.8610   4.2772

          k = 0.1250-0.6250 0.6250 (   286 PWs)   bands (ev):

    -2.8126  -0.4288   2.1661   4.3260

          k = 0.6250-1.1250 1.1250 (   293 PWs)   bands (ev):

    -5.0461   3.0247   4.9038   4.9946

          k = 0.6250-0.6250-0.1250 (   286 PWs)   bands (ev):

    -2.8126  -0.4288   2.1661   4.3260

          k = 1.1250-1.1250 0.3750 (   289 PWs)   bands (ev):

    -3.9779   1.3239   3.5204   3.9946

          k = 0.3750-0.3750 0.3750 (   281 PWs)   bands (ev):

    -4.0665   0.2415   5.1458   5.1458

          k = 0.8750-0.8750 0.8750 (   295 PWs)   bands (ev):

    -5.5991   4.6524   5.9601   5.9601

          k = 0.3750-0.3750 0.6250 (   281 PWs)   bands (ev):

    -3.3195  -0.5726   3.9395   4.6600

          k = 0.8750-0.8750 1.1250 (   295 PWs)   bands (ev):

    -5.5991   4.6524   5.9601   5.9601

          k =-0.6250-0.3750 0.3750 (   281 PWs)   bands (ev):

    -3.3195  -0.5726   3.9395   4.6600

          k =-0.1250-0.8750 0.8750 (   286 PWs)   bands (ev):

    -2.4499  -0.5803   2.7288   3.5105

     highest occupied level (ev):     5.9601

     Writing output data file Si.save

                                                                                

     bravais-lattice index     =            2
     lattice parameter (alat)  =      10.2000  a.u.
     unit-cell volume          =     265.3020 (a.u.)^3
     number of atoms/cell      =            2
     number of atomic types    =            1
     kinetic-energy cut-off    =      16.0000  Ry
     charge density cut-off    =      64.0000  Ry
     convergence threshold     =      1.0E-14
     beta                      =       0.7000
     number of iterations used =            4
     Exchange-correlation      =  SLA  PZ   NOGX NOGC ( 1  1  0  0 0 0)


     celldm(1)=   10.20000  celldm(2)=    0.00000  celldm(3)=    0.00000
     celldm(4)=    0.00000  celldm(5)=    0.00000  celldm(6)=    0.00000

     crystal axes: (cart. coord. in units of alat)
               a(1) = ( -0.5000  0.0000  0.5000 )  
               a(2) = (  0.0000  0.5000  0.5000 )  
               a(3) = ( -0.5000  0.5000  0.0000 )  

     reciprocal axes: (cart. coord. in units 2 pi/alat)
               b(1) = ( -1.0000 -1.0000  1.0000 )  
               b(2) = (  1.0000  1.0000  1.0000 )  
               b(3) = ( -1.0000  1.0000 -1.0000 )  


     Atoms inside the unit cell: 

     Cartesian axes

     site n.  atom      mass           positions (alat units)
        1     Si  28.0855   tau(    1) = (    0.00000    0.00000    0.00000  )
        2     Si  28.0855   tau(    2) = (    0.25000    0.25000    0.25000  )

     Computing dynamical matrix for 
                    q = (   0.5000000  -0.5000000   0.5000000 )
 
     13 Sym.Ops. (with q -> -q+G )


     G cutoff =  168.6633  (   1139 G-vectors)     FFT grid: ( 20, 20, 20)
     number of k points=    60

     PseudoPot. # 1 for Si read from file:
     ./Si.vbc.UPF
     MD5 check sum: bcd8ae23180a2f07cc8655fe7dcd9644
     Pseudo is Norm-conserving, Zval =  4.0
     Generated by new atomic code, or converted to UPF format
     Using radial grid of  431 points,  2 beta functions with: 
                l(1) =   0
                l(2) =   1


     Atomic displacements:
     There are   4 irreducible representations

     Representation     1      1 modes -  To be done

     Representation     2      1 modes -  To be done

     Representation     3      2 modes -  To be done

     Representation     4      2 modes -  To be done



     Alpha used in Ewald sum =   0.7000
     PHONON       :    29.83s CPU        33.24s WALL



     Representation #  1 mode #   1

     Self-consistent Calculation

      iter #   1 total cpu time :    33.4 secs   av.it.:   5.0
      thresh= 1.000E-02 alpha_mix =  0.700 |ddv_scf|^2 =  2.370E-05

      iter #   2 total cpu time :    33.7 secs   av.it.:   7.7
      thresh= 4.868E-04 alpha_mix =  0.700 |ddv_scf|^2 =  1.986E-05

      iter #   3 total cpu time :    34.0 secs   av.it.:   7.0
      thresh= 4.456E-04 alpha_mix =  0.700 |ddv_scf|^2 =  1.854E-09

      iter #   4 total cpu time :    34.3 secs   av.it.:   7.4
      thresh= 4.306E-06 alpha_mix =  0.700 |ddv_scf|^2 =  3.497E-11

      iter #   5 total cpu time :    34.5 secs   av.it.:   7.3
      thresh= 5.913E-07 alpha_mix =  0.700 |ddv_scf|^2 =  3.038E-13

      iter #   6 total cpu time :    34.8 secs   av.it.:   7.2
      thresh= 5.512E-08 alpha_mix =  0.700 |ddv_scf|^2 =  2.679E-15

     End of self-consistent calculation

     Convergence has been achieved 


     Representation #  2 mode #   2

     Self-consistent Calculation

      iter #   1 total cpu time :    35.1 secs   av.it.:   5.5
      thresh= 1.000E-02 alpha_mix =  0.700 |ddv_scf|^2 =  3.924E-04

      iter #   2 total cpu time :    35.5 secs   av.it.:   7.8
      thresh= 1.981E-03 alpha_mix =  0.700 |ddv_scf|^2 =  1.253E-03

      iter #   3 total cpu time :    35.7 secs   av.it.:   7.0
      thresh= 3.540E-03 alpha_mix =  0.700 |ddv_scf|^2 =  3.689E-08

      iter #   4 total cpu time :    36.0 secs   av.it.:   7.8
      thresh= 1.921E-05 alpha_mix =  0.700 |ddv_scf|^2 =  8.303E-10

      iter #   5 total cpu time :    36.3 secs   av.it.:   8.0
      thresh= 2.881E-06 alpha_mix =  0.700 |ddv_scf|^2 =  6.390E-11

      iter #   6 total cpu time :    36.6 secs   av.it.:   7.3
      thresh= 7.993E-07 alpha_mix =  0.700 |ddv_scf|^2 =  7.629E-14

      iter #   7 total cpu time :    36.9 secs   av.it.:   7.7
      thresh= 2.762E-08 alpha_mix =  0.700 |ddv_scf|^2 =  3.478E-15

     End of self-consistent calculation

     Convergence has been achieved 


     Representation #  3 modes #   3  4

     Self-consistent Calculation

      iter #   1 total cpu time :    37.3 secs   av.it.:   4.8
      thresh= 1.000E-02 alpha_mix =  0.700 |ddv_scf|^2 =  1.302E-07

      iter #   2 total cpu time :    38.0 secs   av.it.:   9.1
      thresh= 3.608E-05 alpha_mix =  0.700 |ddv_scf|^2 =  2.323E-09

      iter #   3 total cpu time :    38.6 secs   av.it.:   8.9
      thresh= 4.820E-06 alpha_mix =  0.700 |ddv_scf|^2 =  6.914E-11

      iter #   4 total cpu time :    39.1 secs   av.it.:   8.5
      thresh= 8.315E-07 alpha_mix =  0.700 |ddv_scf|^2 =  1.263E-13

      iter #   5 total cpu time :    39.7 secs   av.it.:   9.0
      thresh= 3.554E-08 alpha_mix =  0.700 |ddv_scf|^2 =  1.764E-15

     End of self-consistent calculation

     Convergence has been achieved 


     Representation #  4 modes #   5  6

     Self-consistent Calculation

      iter #   1 total cpu time :    40.2 secs   av.it.:   5.0
      thresh= 1.000E-02 alpha_mix =  0.700 |ddv_scf|^2 =  1.137E-06

      iter #   2 total cpu time :    40.8 secs   av.it.:   9.1
      thresh= 1.066E-04 alpha_mix =  0.700 |ddv_scf|^2 =  9.277E-08

      iter #   3 total cpu time :    41.4 secs   av.it.:   8.8
      thresh= 3.046E-05 alpha_mix =  0.700 |ddv_scf|^2 =  9.407E-11

      iter #   4 total cpu time :    42.0 secs   av.it.:   8.4
      thresh= 9.699E-07 alpha_mix =  0.700 |ddv_scf|^2 =  4.079E-13

      iter #   5 total cpu time :    42.6 secs   av.it.:   8.7
      thresh= 6.387E-08 alpha_mix =  0.700 |ddv_scf|^2 =  2.020E-15

     End of self-consistent calculation

     Convergence has been achieved 
 
     Number of q in the star =    4
     List of q in the star:
          1   0.500000000  -0.500000000   0.500000000
          2   0.500000000   0.500000000   0.500000000
          3  -0.500000000   0.500000000   0.500000000
          4   0.500000000   0.500000000  -0.500000000

     Diagonalizing the dynamical matrix

     q = (    0.500000000  -0.500000000   0.500000000 ) 

 **************************************************************************
     freq (    1) =       3.281858 [THz] =     109.471006 [cm-1]
     freq (    2) =       3.281858 [THz] =     109.471006 [cm-1]
     freq (    3) =      11.303140 [THz] =     377.032163 [cm-1]
     freq (    4) =      12.548124 [THz] =     418.560356 [cm-1]
     freq (    5) =      14.786092 [THz] =     493.210929 [cm-1]
     freq (    6) =      14.786092 [THz] =     493.210929 [cm-1]
 **************************************************************************

     Calculation of q =    0.0000000   0.5000000   0.0000000
 
     Parallelization info
     --------------------
     sticks:   dense  smooth     PW     G-vecs:    dense   smooth      PW
     Min         117     117     42                 1138     1138     264
     Max         118     118     43                 1139     1139     267
     Sum         235     235     85                 2277     2277     531
 


     bravais-lattice index     =            2
     lattice parameter (alat)  =      10.2000  a.u.
     unit-cell volume          =     265.3020 (a.u.)^3
     number of atoms/cell      =            2
     number of atomic types    =            1
     number of electrons       =         8.00
     number of Kohn-Sham states=            4
     kinetic-energy cutoff     =      16.0000  Ry
     charge density cutoff     =      64.0000  Ry
     Exchange-correlation      =  SLA  PZ   NOGX NOGC ( 1  1  0  0 0 0)

     celldm(1)=  10.200000  celldm(2)=   0.000000  celldm(3)=   0.000000
     celldm(4)=   0.000000  celldm(5)=   0.000000  celldm(6)=   0.000000

     crystal axes: (cart. coord. in units of alat)
               a(1) = (  -0.500000   0.000000   0.500000 )  
               a(2) = (   0.000000   0.500000   0.500000 )  
               a(3) = (  -0.500000   0.500000   0.000000 )  

     reciprocal axes: (cart. coord. in units 2 pi/alat)
               b(1) = ( -1.000000 -1.000000  1.000000 )  
               b(2) = (  1.000000  1.000000  1.000000 )  
               b(3) = ( -1.000000  1.000000 -1.000000 )  


     PseudoPot. # 1 for Si read from file:
     ./Si.vbc.UPF
     MD5 check sum: bcd8ae23180a2f07cc8655fe7dcd9644
     Pseudo is Norm-conserving, Zval =  4.0
     Generated by new atomic code, or converted to UPF format
     Using radial grid of  431 points,  2 beta functions with: 
                l(1) =   0
                l(2) =   1

     atomic species   valence    mass     pseudopotential
        Si             4.00    28.08550     Si( 1.00)

     48 Sym. Ops., with inversion, found



   Cartesian axes

     site n.     atom                  positions (alat units)
         1           Si  tau(   1) = (   0.0000000   0.0000000   0.0000000  )
         2           Si  tau(   2) = (   0.2500000   0.2500000   0.2500000  )

     number of k points=    80
                       cart. coord. in units 2pi/alat
        k(    1) = (   0.1250000   0.1250000   0.1250000), wk =   0.0312500
        k(    2) = (   0.1250000   0.6250000   0.1250000), wk =   0.0000000
        k(    3) = (   0.1250000   0.1250000   0.3750000), wk =   0.0625000
        k(    4) = (   0.1250000   0.6250000   0.3750000), wk =   0.0000000
        k(    5) = (   0.1250000   0.1250000   0.6250000), wk =   0.0625000
        k(    6) = (   0.1250000   0.6250000   0.6250000), wk =   0.0000000
        k(    7) = (   0.1250000   0.1250000   0.8750000), wk =   0.0625000
        k(    8) = (   0.1250000   0.6250000   0.8750000), wk =   0.0000000
        k(    9) = (   0.1250000   0.3750000   0.3750000), wk =   0.0625000
        k(   10) = (   0.1250000   0.8750000   0.3750000), wk =   0.0000000
        k(   11) = (   0.1250000   0.3750000   0.6250000), wk =   0.0625000
        k(   12) = (   0.1250000   0.8750000   0.6250000), wk =   0.0000000
        k(   13) = (   0.1250000   0.3750000   0.8750000), wk =   0.0625000
        k(   14) = (   0.1250000   0.8750000   0.8750000), wk =   0.0000000
        k(   15) = (   0.1250000   0.6250000   0.6250000), wk =   0.0625000
        k(   16) = (   0.1250000   1.1250000   0.6250000), wk =   0.0000000
        k(   17) = (   0.3750000   0.3750000   0.3750000), wk =   0.0312500
        k(   18) = (   0.3750000   0.8750000   0.3750000), wk =   0.0000000
        k(   19) = (   0.3750000   0.3750000   0.6250000), wk =   0.0625000
        k(   20) = (   0.3750000   0.8750000   0.6250000), wk =   0.0000000
        k(   21) = (  -0.1250000  -0.1250000  -0.1250000), wk =   0.0312500
        k(   22) = (  -0.1250000   0.3750000  -0.1250000), wk =   0.0000000
        k(   23) = (  -0.3750000  -0.1250000  -0.1250000), wk =   0.0625000
        k(   24) = (  -0.3750000   0.3750000  -0.1250000), wk =   0.0000000
        k(   25) = (   0.1250000   0.3750000  -0.1250000), wk =   0.0312500
        k(   26) = (   0.1250000   0.8750000  -0.1250000), wk =   0.0000000
        k(   27) = (   0.1250000  -0.3750000  -0.1250000), wk =   0.0312500
        k(   28) = (   0.1250000   0.1250000  -0.1250000), wk =   0.0000000
        k(   29) = (  -0.6250000  -0.1250000  -0.1250000), wk =   0.0625000
        k(   30) = (  -0.6250000   0.3750000  -0.1250000), wk =   0.0000000
        k(   31) = (   0.1250000   0.6250000  -0.1250000), wk =   0.0312500
        k(   32) = (   0.1250000   1.1250000  -0.1250000), wk =   0.0000000
        k(   33) = (   0.1250000  -0.6250000  -0.1250000), wk =   0.0312500
        k(   34) = (   0.1250000  -0.1250000  -0.1250000), wk =   0.0000000
        k(   35) = (  -0.8750000  -0.1250000  -0.1250000), wk =   0.0625000
        k(   36) = (  -0.8750000   0.3750000  -0.1250000), wk =   0.0000000
        k(   37) = (   0.1250000   0.8750000  -0.1250000), wk =   0.0312500
        k(   38) = (   0.1250000   1.3750000  -0.1250000), wk =   0.0000000
        k(   39) = (   0.1250000  -0.8750000  -0.1250000), wk =   0.0312500
        k(   40) = (   0.1250000  -0.3750000  -0.1250000), wk =   0.0000000
        k(   41) = (  -0.3750000  -0.3750000  -0.1250000), wk =   0.0625000
        k(   42) = (  -0.3750000   0.1250000  -0.1250000), wk =   0.0000000
        k(   43) = (   0.3750000   0.1250000  -0.3750000), wk =   0.0312500
        k(   44) = (   0.3750000   0.6250000  -0.3750000), wk =   0.0000000
        k(   45) = (   0.3750000  -0.1250000  -0.3750000), wk =   0.0312500
        k(   46) = (   0.3750000   0.3750000  -0.3750000), wk =   0.0000000
        k(   47) = (  -0.6250000  -0.3750000  -0.1250000), wk =   0.0625000
        k(   48) = (  -0.6250000   0.1250000  -0.1250000), wk =   0.0000000
        k(   49) = (   0.3750000   0.1250000  -0.6250000), wk =   0.0625000
        k(   50) = (   0.3750000   0.6250000  -0.6250000), wk =   0.0000000
        k(   51) = (   0.3750000   0.6250000  -0.1250000), wk =   0.0625000
        k(   52) = (   0.3750000   1.1250000  -0.1250000), wk =   0.0000000
        k(   53) = (   0.3750000  -0.6250000  -0.1250000), wk =   0.0625000
        k(   54) = (   0.3750000  -0.1250000  -0.1250000), wk =   0.0000000
        k(   55) = (   0.6250000  -0.1250000  -0.3750000), wk =   0.0625000
        k(   56) = (   0.6250000   0.3750000  -0.3750000), wk =   0.0000000
        k(   57) = (  -0.8750000  -0.3750000  -0.1250000), wk =   0.0625000
        k(   58) = (  -0.8750000   0.1250000  -0.1250000), wk =   0.0000000
        k(   59) = (   0.3750000   0.1250000  -0.8750000), wk =   0.0625000
        k(   60) = (   0.3750000   0.6250000  -0.8750000), wk =   0.0000000
        k(   61) = (   0.3750000   0.8750000  -0.1250000), wk =   0.0625000
        k(   62) = (   0.3750000   1.3750000  -0.1250000), wk =   0.0000000
        k(   63) = (   0.3750000  -0.8750000  -0.1250000), wk =   0.0625000
        k(   64) = (   0.3750000  -0.3750000  -0.1250000), wk =   0.0000000
        k(   65) = (   0.8750000  -0.1250000  -0.3750000), wk =   0.0625000
        k(   66) = (   0.8750000   0.3750000  -0.3750000), wk =   0.0000000
        k(   67) = (  -0.6250000  -0.6250000  -0.1250000), wk =   0.0625000
        k(   68) = (  -0.6250000  -0.1250000  -0.1250000), wk =   0.0000000
        k(   69) = (   0.6250000   0.1250000  -0.6250000), wk =   0.0312500
        k(   70) = (   0.6250000   0.6250000  -0.6250000), wk =   0.0000000
        k(   71) = (   0.6250000  -0.1250000  -0.6250000), wk =   0.0312500
        k(   72) = (   0.6250000   0.3750000  -0.6250000), wk =   0.0000000
        k(   73) = (  -0.3750000  -0.3750000  -0.3750000), wk =   0.0312500
        k(   74) = (  -0.3750000   0.1250000  -0.3750000), wk =   0.0000000
        k(   75) = (  -0.6250000  -0.3750000  -0.3750000), wk =   0.0625000
        k(   76) = (  -0.6250000   0.1250000  -0.3750000), wk =   0.0000000
        k(   77) = (   0.3750000   0.6250000  -0.3750000), wk =   0.0312500
        k(   78) = (   0.3750000   1.1250000  -0.3750000), wk =   0.0000000
        k(   79) = (   0.3750000  -0.6250000  -0.3750000), wk =   0.0312500
        k(   80) = (   0.3750000  -0.1250000  -0.3750000), wk =   0.0000000

     Dense  grid:     2277 G-vectors     FFT dimensions: (  20,  20,  20)

     Largest allocated arrays     est. size (Mb)     dimensions
        Kohn-Sham Wavefunctions         0.01 Mb     (     154,    4)
        NL pseudopotentials             0.02 Mb     (     154,    8)
        Each V/rho on FFT grid          0.06 Mb     (    4000)
        Each G-vector array             0.01 Mb     (    1139)
        G-vector shells                 0.00 Mb     (      58)
     Largest temporary arrays     est. size (Mb)     dimensions
        Auxiliary wavefunctions         0.04 Mb     (     154,   16)
        Each subspace H/S matrix        0.00 Mb     (      16,   16)
        Each <psi_i|beta_j> matrix      0.00 Mb     (       8,    4)

     The potential is recalculated from file :
     ./out/_ph0/Si.save/charge-density.dat

     Starting wfc are    8 atomic wfcs

     Band Structure Calculation
     Davidson diagonalization with overlap

     ethr =  1.25E-10,  avg # of iterations = 11.4

     total cpu time spent up to now is        3.9 secs

     End of band structure calculation

          k = 0.1250 0.1250 0.1250 (   295 PWs)   bands (ev):

    -5.5991   4.6524   5.9601   5.9601

          k = 0.1250 0.6250 0.1250 (   289 PWs)   bands (ev):

    -3.9779   1.3239   3.5204   3.9946

          k = 0.1250 0.1250 0.3750 (   293 PWs)   bands (ev):

    -5.0461   3.0247   4.9038   4.9946

          k = 0.1250 0.6250 0.3750 (   288 PWs)   bands (ev):

    -3.5383   0.3849   2.8610   4.2772

          k = 0.1250 0.1250 0.6250 (   289 PWs)   bands (ev):

    -3.9779   1.3239   3.5204   3.9946

          k = 0.1250 0.6250 0.6250 (   286 PWs)   bands (ev):

    -2.8126  -0.4288   2.1661   4.3260

          k = 0.1250 0.1250 0.8750 (   286 PWs)   bands (ev):

    -2.4499  -0.5803   2.7288   3.5105

          k = 0.1250 0.6250 0.8750 (   283 PWs)   bands (ev):

    -2.2583  -0.6913   2.0848   3.2152

          k = 0.1250 0.3750 0.3750 (   292 PWs)   bands (ev):

    -4.5266   1.6005   3.8940   5.4660

          k = 0.1250 0.8750 0.3750 (   283 PWs)   bands (ev):

    -2.2583  -0.6913   2.0848   3.2152

          k = 0.1250 0.3750 0.6250 (   288 PWs)   bands (ev):

    -3.5383   0.3849   2.8610   4.2772

          k = 0.1250 0.8750 0.6250 (   283 PWs)   bands (ev):

    -2.2583  -0.6913   2.0848   3.2152

          k = 0.1250 0.3750 0.8750 (   283 PWs)   bands (ev):

    -2.2583  -0.6913   2.0848   3.2152

          k = 0.1250 0.8750 0.8750 (   286 PWs)   bands (ev):

    -2.4499  -0.5803   2.7288   3.5105

          k = 0.1250 0.6250 0.6250 (   286 PWs)   bands (ev):

    -2.8126  -0.4288   2.1661   4.3260

          k = 0.1250 1.1250 0.6250 (   283 PWs)   bands (ev):

    -2.2583  -0.6913   2.0848   3.2152

          k = 0.3750 0.3750 0.3750 (   281 PWs)   bands (ev):

    -4.0665   0.2415   5.1458   5.1458

          k = 0.3750 0.8750 0.3750 (   286 PWs)   bands (ev):

    -2.8126  -0.4288   2.1661   4.3260

          k = 0.3750 0.3750 0.6250 (   281 PWs)   bands (ev):

    -3.3195  -0.5726   3.9395   4.6600

          k = 0.3750 0.8750 0.6250 (   288 PWs)   bands (ev):

    -3.5383   0.3849   2.8610   4.2772

          k =-0.1250-0.1250-0.1250 (   295 PWs)   bands (ev):

    -5.5991   4.6524   5.9601   5.9601

          k =-0.1250 0.3750-0.1250 (   293 PWs)   bands (ev):

    -5.0461   3.0247   4.9038   4.9946

          k =-0.3750-0.1250-0.1250 (   293 PWs)   bands (ev):

    -5.0461   3.0247   4.9038   4.9946

          k =-0.3750 0.3750-0.1250 (   292 PWs)   bands (ev):

    -4.5266   1.6005   3.8940   5.4660

          k = 0.1250 0.3750-0.1250 (   293 PWs)   bands (ev):

    -5.0461   3.0247   4.9038   4.9946

          k = 0.1250 0.8750-0.1250 (   286 PWs)   bands (ev):

    -2.4499  -0.5803   2.7288   3.5105

          k = 0.1250-0.3750-0.1250 (   293 PWs)   bands (ev):

    -5.0461   3.0247   4.9038   4.9946

          k = 0.1250 0.1250-0.1250 (   295 PWs)   bands (ev):

    -5.5991   4.6524   5.9601   5.9601

          k =-0.6250-0.1250-0.1250 (   289 PWs)   bands (ev):

    -3.9779   1.3239   3.5204   3.9946

          k =-0.6250 0.3750-0.1250 (   288 PWs)   bands (ev):

    -3.5383   0.3849   2.8610   4.2772

          k = 0.1250 0.6250-0.1250 (   289 PWs)   bands (ev):

    -3.9779   1.3239   3.5204   3.9946

          k = 0.1250 1.1250-0.1250 (   286 PWs)   bands (ev):

    -2.4499  -0.5803   2.7288   3.5105

          k = 0.1250-0.6250-0.1250 (   289 PWs)   bands (ev):

    -3.9779   1.3239   3.5204   3.9946

          k = 0.1250-0.1250-0.1250 (   295 PWs)   bands (ev):

    -5.5991   4.6524   5.9601   5.9601

          k =-0.8750-0.1250-0.1250 (   286 PWs)   bands (ev):

    -2.4499  -0.5803   2.7288   3.5105

          k =-0.8750 0.3750-0.1250 (   283 PWs)   bands (ev):

    -2.2583  -0.6913   2.0848   3.2152

          k = 0.1250 0.8750-0.1250 (   286 PWs)   bands (ev):

    -2.4499  -0.5803   2.7288   3.5105

          k = 0.1250 1.3750-0.1250 (   289 PWs)   bands (ev):

    -3.9779   1.3239   3.5204   3.9946

          k = 0.1250-0.8750-0.1250 (   286 PWs)   bands (ev):

    -2.4499  -0.5803   2.7288   3.5105

          k = 0.1250-0.3750-0.1250 (   293 PWs)   bands (ev):

    -5.0461   3.0247   4.9038   4.9946

          k =-0.3750-0.3750-0.1250 (   292 PWs)   bands (ev):

    -4.5266   1.6005   3.8940   5.4660

          k =-0.3750 0.1250-0.1250 (   293 PWs)   bands (ev):

    -5.0461   3.0247   4.9038   4.9946

          k = 0.3750 0.1250-0.3750 (   292 PWs)   bands (ev):

    -4.5266   1.6005   3.8940   5.4660

          k = 0.3750 0.6250-0.3750 (   281 PWs)   bands (ev):

    -3.3195  -0.5726   3.9395   4.6600

          k = 0.3750-0.1250-0.3750 (   292 PWs)   bands (ev):

    -4.5266   1.6005   3.8940   5.4660

          k = 0.3750 0.3750-0.3750 (   281 PWs)   bands (ev):

    -4.0665   0.2415   5.1458   5.1458

          k =-0.6250-0.3750-0.1250 (   288 PWs)   bands (ev):

    -3.5383   0.3849   2.8610   4.2772

          k =-0.6250 0.1250-0.1250 (   289 PWs)   bands (ev):

    -3.9779   1.3239   3.5204   3.9946

          k = 0.3750 0.1250-0.6250 (   288 PWs)   bands (ev):

    -3.5383   0.3849   2.8610   4.2772

          k = 0.3750 0.6250-0.6250 (   281 PWs)   bands (ev):

    -3.3195  -0.5726   3.9395   4.6600

          k = 0.3750 0.6250-0.1250 (   288 PWs)   bands (ev):

    -3.5383   0.3849   2.8610   4.2772

          k = 0.3750 1.1250-0.1250 (   283 PWs)   bands (ev):

    -2.2583  -0.6913   2.0848   3.2152

          k = 0.3750-0.6250-0.1250 (   288 PWs)   bands (ev):

    -3.5383   0.3849   2.8610   4.2772

          k = 0.3750-0.1250-0.1250 (   293 PWs)   bands (ev):

    -5.0461   3.0247   4.9038   4.9946

          k = 0.6250-0.1250-0.3750 (   288 PWs)   bands (ev):

    -3.5383   0.3849   2.8610   4.2772

          k = 0.6250 0.3750-0.3750 (   281 PWs)   bands (ev):

    -3.3195  -0.5726   3.9395   4.6600

          k =-0.8750-0.3750-0.1250 (   283 PWs)   bands (ev):

    -2.2583  -0.6913   2.0848   3.2152

          k =-0.8750 0.1250-0.1250 (   286 PWs)   bands (ev):

    -2.4499  -0.5803   2.7288   3.5105

          k = 0.3750 0.1250-0.8750 (   283 PWs)   bands (ev):

    -2.2583  -0.6913   2.0848   3.2152

          k = 0.3750 0.6250-0.8750 (   288 PWs)   bands (ev):

    -3.5383   0.3849   2.8610   4.2772

          k = 0.3750 0.8750-0.1250 (   283 PWs)   bands (ev):

    -2.2583  -0.6913   2.0848   3.2152

          k = 0.3750 1.3750-0.1250 (   288 PWs)   bands (ev):

    -3.5383   0.3849   2.8610   4.2772

          k = 0.3750-0.8750-0.1250 (   283 PWs)   bands (ev):

    -2.2583  -0.6913   2.0848   3.2152

          k = 0.3750-0.3750-0.1250 (   292 PWs)   bands (ev):

    -4.5266   1.6005   3.8940   5.4660

          k = 0.8750-0.1250-0.3750 (   283 PWs)   bands (ev):

    -2.2583  -0.6913   2.0848   3.2152

          k = 0.8750 0.3750-0.3750 (   286 PWs)   bands (ev):

    -2.8126  -0.4288   2.1661   4.3260

          k =-0.6250-0.6250-0.1250 (   286 PWs)   bands (ev):

    -2.8126  -0.4288   2.1661   4.3260

          k =-0.6250-0.1250-0.1250 (   289 PWs)   bands (ev):

    -3.9779   1.3239   3.5204   3.9946

          k = 0.6250 0.1250-0.6250 (   286 PWs)   bands (ev):

    -2.8126  -0.4288   2.1661   4.3260

          k = 0.6250 0.6250-0.6250 (   281 PWs)   bands (ev):

    -4.0665   0.2415   5.1458   5.1458

          k = 0.6250-0.1250-0.6250 (   286 PWs)   bands (ev):

    -2.8126  -0.4288   2.1661   4.3260

          k = 0.6250 0.3750-0.6250 (   281 PWs)   bands (ev):

    -3.3195  -0.5726   3.9395   4.6600

          k =-0.3750-0.3750-0.3750 (   281 PWs)   bands (ev):

    -4.0665   0.2415   5.1458   5.1458

          k =-0.3750 0.1250-0.3750 (   292 PWs)   bands (ev):

    -4.5266   1.6005   3.8940   5.4660

          k =-0.6250-0.3750-0.3750 (   281 PWs)   bands (ev):

    -3.3195  -0.5726   3.9395   4.6600

          k =-0.6250 0.1250-0.3750 (   288 PWs)   bands (ev):

    -3.5383   0.3849   2.8610   4.2772

          k = 0.3750 0.6250-0.3750 (   281 PWs)   bands (ev):

    -3.3195  -0.5726   3.9395   4.6600

          k = 0.3750 1.1250-0.3750 (   286 PWs)   bands (ev):

    -2.8126  -0.4288   2.1661   4.3260

          k = 0.3750-0.6250-0.3750 (   281 PWs)   bands (ev):

    -3.3195  -0.5726   3.9395   4.6600

          k = 0.3750-0.1250-0.3750 (   292 PWs)   bands (ev):

    -4.5266   1.6005   3.8940   5.4660

     highest occupied level (ev):     5.9601

     Writing output data file Si.save

                                                                                

     bravais-lattice index     =            2
     lattice parameter (alat)  =      10.2000  a.u.
     unit-cell volume          =     265.3020 (a.u.)^3
     number of atoms/cell      =            2
     number of atomic types    =            1
     kinetic-energy cut-off    =      16.0000  Ry
     charge density cut-off    =      64.0000  Ry
     convergence threshold     =      1.0E-14
     beta                      =       0.7000
     number of iterations used =            4
     Exchange-correlation      =  SLA  PZ   NOGX NOGC ( 1  1  0  0 0 0)


     celldm(1)=   10.20000  celldm(2)=    0.00000  celldm(3)=    0.00000
     celldm(4)=    0.00000  celldm(5)=    0.00000  celldm(6)=    0.00000

     crystal axes: (cart. coord. in units of alat)
               a(1) = ( -0.5000  0.0000  0.5000 )  
               a(2) = (  0.0000  0.5000  0.5000 )  
               a(3) = ( -0.5000  0.5000  0.0000 )  

     reciprocal axes: (cart. coord. in units 2 pi/alat)
               b(1) = ( -1.0000 -1.0000  1.0000 )  
               b(2) = (  1.0000  1.0000  1.0000 )  
               b(3) = ( -1.0000  1.0000 -1.0000 )  


     Atoms inside the unit cell: 

     Cartesian axes

     site n.  atom      mass           positions (alat units)
        1     Si  28.0855   tau(    1) = (    0.00000    0.00000    0.00000  )
        2     Si  28.0855   tau(    2) = (    0.25000    0.25000    0.25000  )

     Computing dynamical matrix for 
                    q = (   0.0000000   0.5000000   0.0000000 )
 
      8 Sym.Ops. (no q -> -q+G )


     G cutoff =  168.6633  (   1139 G-vectors)     FFT grid: ( 20, 20, 20)
     number of k points=    80

     PseudoPot. # 1 for Si read from file:
     ./Si.vbc.UPF
     MD5 check sum: bcd8ae23180a2f07cc8655fe7dcd9644
     Pseudo is Norm-conserving, Zval =  4.0
     Generated by new atomic code, or converted to UPF format
     Using radial grid of  431 points,  2 beta functions with: 
                l(1) =   0
                l(2) =   1

     Mode symmetry, C_4v (4mm)  point group:


     Atomic displacements:
     There are   4 irreducible representations

     Representation     1      1 modes -A_1  G_1 D_1  To be done

     Representation     2      1 modes -B_2  G_4 D_2'  To be done

     Representation     3      2 modes -E    G_5 D_5  To be done

     Representation     4      2 modes -E    G_5 D_5  To be done



     Alpha used in Ewald sum =   0.7000
     PHONON       :    39.32s CPU        43.95s WALL



     Representation #  1 mode #   1

     Self-consistent Calculation

      iter #   1 total cpu time :    44.2 secs   av.it.:   5.7
      thresh= 1.000E-02 alpha_mix =  0.700 |ddv_scf|^2 =  3.139E-03

      iter #   2 total cpu time :    44.6 secs   av.it.:   7.3
      thresh= 5.602E-03 alpha_mix =  0.700 |ddv_scf|^2 =  4.145E-02

      iter #   3 total cpu time :    44.9 secs   av.it.:   6.5
      thresh= 1.000E-02 alpha_mix =  0.700 |ddv_scf|^2 =  2.717E-08

      iter #   4 total cpu time :    45.3 secs   av.it.:   8.4
      thresh= 1.648E-05 alpha_mix =  0.700 |ddv_scf|^2 =  1.540E-09

      iter #   5 total cpu time :    45.7 secs   av.it.:   8.1
      thresh= 3.924E-06 alpha_mix =  0.700 |ddv_scf|^2 =  2.803E-11

      iter #   6 total cpu time :    46.0 secs   av.it.:   7.3
      thresh= 5.295E-07 alpha_mix =  0.700 |ddv_scf|^2 =  3.987E-13

      iter #   7 total cpu time :    46.4 secs   av.it.:   7.4
      thresh= 6.314E-08 alpha_mix =  0.700 |ddv_scf|^2 =  2.365E-14

      iter #   8 total cpu time :    46.7 secs   av.it.:   6.7
      thresh= 1.538E-08 alpha_mix =  0.700 |ddv_scf|^2 =  1.192E-17

     End of self-consistent calculation

     Convergence has been achieved 


     Representation #  2 mode #   2

     Self-consistent Calculation

      iter #   1 total cpu time :    47.0 secs   av.it.:   4.9
      thresh= 1.000E-02 alpha_mix =  0.700 |ddv_scf|^2 =  5.489E-06

      iter #   2 total cpu time :    47.4 secs   av.it.:   8.2
      thresh= 2.343E-04 alpha_mix =  0.700 |ddv_scf|^2 =  1.207E-06

      iter #   3 total cpu time :    47.7 secs   av.it.:   7.9
      thresh= 1.099E-04 alpha_mix =  0.700 |ddv_scf|^2 =  5.132E-09

      iter #   4 total cpu time :    48.1 secs   av.it.:   7.9
      thresh= 7.164E-06 alpha_mix =  0.700 |ddv_scf|^2 =  8.892E-11

      iter #   5 total cpu time :    48.4 secs   av.it.:   7.5
      thresh= 9.430E-07 alpha_mix =  0.700 |ddv_scf|^2 =  1.850E-12

      iter #   6 total cpu time :    48.8 secs   av.it.:   7.5
      thresh= 1.360E-07 alpha_mix =  0.700 |ddv_scf|^2 =  1.185E-15

     End of self-consistent calculation

     Convergence has been achieved 


     Representation #  3 modes #   3  4

     Self-consistent Calculation

      iter #   1 total cpu time :    49.4 secs   av.it.:   5.1
      thresh= 1.000E-02 alpha_mix =  0.700 |ddv_scf|^2 =  1.097E-06

      iter #   2 total cpu time :    50.6 secs   av.it.:   9.2
      thresh= 1.047E-04 alpha_mix =  0.700 |ddv_scf|^2 =  1.638E-07

      iter #   3 total cpu time :    51.4 secs   av.it.:   8.8
      thresh= 4.048E-05 alpha_mix =  0.700 |ddv_scf|^2 =  1.393E-10

      iter #   4 total cpu time :    52.1 secs   av.it.:   8.6
      thresh= 1.180E-06 alpha_mix =  0.700 |ddv_scf|^2 =  9.162E-12

      iter #   5 total cpu time :    52.9 secs   av.it.:   8.5
      thresh= 3.027E-07 alpha_mix =  0.700 |ddv_scf|^2 =  5.754E-15

     End of self-consistent calculation

     Convergence has been achieved 


     Representation #  4 modes #   5  6

     Self-consistent Calculation

      iter #   1 total cpu time :    53.4 secs   av.it.:   5.0
      thresh= 1.000E-02 alpha_mix =  0.700 |ddv_scf|^2 =  9.681E-07

      iter #   2 total cpu time :    54.2 secs   av.it.:   9.2
      thresh= 9.839E-05 alpha_mix =  0.700 |ddv_scf|^2 =  1.449E-07

      iter #   3 total cpu time :    55.1 secs   av.it.:   8.8
      thresh= 3.806E-05 alpha_mix =  0.700 |ddv_scf|^2 =  1.392E-10

      iter #   4 total cpu time :    55.9 secs   av.it.:   8.6
      thresh= 1.180E-06 alpha_mix =  0.700 |ddv_scf|^2 =  5.213E-12

      iter #   5 total cpu time :    56.6 secs   av.it.:   8.4
      thresh= 2.283E-07 alpha_mix =  0.700 |ddv_scf|^2 =  1.308E-14

      iter #   6 total cpu time :    57.4 secs   av.it.:   9.3
      thresh= 1.144E-08 alpha_mix =  0.700 |ddv_scf|^2 =  4.576E-17

     End of self-consistent calculation

     Convergence has been achieved 
 
     Number of q in the star =    6
     List of q in the star:
          1   0.000000000   0.500000000   0.000000000
          2   0.000000000  -0.500000000   0.000000000
          3   0.500000000   0.000000000   0.000000000
          4   0.000000000   0.000000000   0.500000000
          5   0.000000000   0.000000000  -0.500000000
          6  -0.500000000   0.000000000   0.000000000

     Diagonalizing the dynamical matrix

     q = (    0.000000000   0.500000000   0.000000000 ) 

 **************************************************************************
     freq (    1) =       3.830872 [THz] =     127.784142 [cm-1]
     freq (    2) =       3.830872 [THz] =     127.784142 [cm-1]
     freq (    3) =       7.313357 [THz] =     243.947329 [cm-1]
     freq (    4) =      14.339084 [THz] =     478.300347 [cm-1]
     freq (    5) =      14.339084 [THz] =     478.300347 [cm-1]
     freq (    6) =      14.863759 [THz] =     495.801623 [cm-1]
 **************************************************************************

     Mode symmetry, C_4v (4mm)  point group:

     freq (  1 -  2) =        127.8  [cm-1]   --> E    G_5 D_5       
     freq (  3 -  3) =        243.9  [cm-1]   --> A_1  G_1 D_1       
     freq (  4 -  5) =        478.3  [cm-1]   --> E    G_5 D_5       
     freq (  6 -  6) =        495.8  [cm-1]   --> B_2  G_4 D_2'      

     Calculation of q =    0.7500000  -0.2500000   0.7500000
 
     Parallelization info
     --------------------
     sticks:   dense  smooth     PW     G-vecs:    dense   smooth      PW
     Min         117     117     48                 1138     1138     322
     Max         118     118     49                 1139     1139     323
     Sum         235     235     97                 2277     2277     645
 


     bravais-lattice index     =            2
     lattice parameter (alat)  =      10.2000  a.u.
     unit-cell volume          =     265.3020 (a.u.)^3
     number of atoms/cell      =            2
     number of atomic types    =            1
     number of electrons       =         8.00
     number of Kohn-Sham states=            4
     kinetic-energy cutoff     =      16.0000  Ry
     charge density cutoff     =      64.0000  Ry
     Exchange-correlation      =  SLA  PZ   NOGX NOGC ( 1  1  0  0 0 0)

     celldm(1)=  10.200000  celldm(2)=   0.000000  celldm(3)=   0.000000
     celldm(4)=   0.000000  celldm(5)=   0.000000  celldm(6)=   0.000000

     crystal axes: (cart. coord. in units of alat)
               a(1) = (  -0.500000   0.000000   0.500000 )  
               a(2) = (   0.000000   0.500000   0.500000 )  
               a(3) = (  -0.500000   0.500000   0.000000 )  

     reciprocal axes: (cart. coord. in units 2 pi/alat)
               b(1) = ( -1.000000 -1.000000  1.000000 )  
               b(2) = (  1.000000  1.000000  1.000000 )  
               b(3) = ( -1.000000  1.000000 -1.000000 )  


     PseudoPot. # 1 for Si read from file:
     ./Si.vbc.UPF
     MD5 check sum: bcd8ae23180a2f07cc8655fe7dcd9644
     Pseudo is Norm-conserving, Zval =  4.0
     Generated by new atomic code, or converted to UPF format
     Using radial grid of  431 points,  2 beta functions with: 
                l(1) =   0
                l(2) =   1

     atomic species   valence    mass     pseudopotential
        Si             4.00    28.08550     Si( 1.00)

     48 Sym. Ops., with inversion, found



   Cartesian axes

     site n.     atom                  positions (alat units)
         1           Si  tau(   1) = (   0.0000000   0.0000000   0.0000000  )
         2           Si  tau(   2) = (   0.2500000   0.2500000   0.2500000  )

     number of k points=   288

     Number of k-points >= 100: set verbosity='high' to print them.

     Dense  grid:     2277 G-vectors     FFT dimensions: (  20,  20,  20)

     Largest allocated arrays     est. size (Mb)     dimensions
        Kohn-Sham Wavefunctions         0.01 Mb     (     150,    4)
        NL pseudopotentials             0.02 Mb     (     150,    8)
        Each V/rho on FFT grid          0.06 Mb     (    4000)
        Each G-vector array             0.01 Mb     (    1139)
        G-vector shells                 0.00 Mb     (      58)
     Largest temporary arrays     est. size (Mb)     dimensions
        Auxiliary wavefunctions         0.04 Mb     (     150,   16)
        Each subspace H/S matrix        0.00 Mb     (      16,   16)
        Each <psi_i|beta_j> matrix      0.00 Mb     (       8,    4)

     The potential is recalculated from file :
     ./out/_ph0/Si.save/charge-density.dat

     Starting wfc are    8 atomic wfcs

     Band Structure Calculation
     Davidson diagonalization with overlap

     ethr =  1.25E-10,  avg # of iterations = 11.4

     total cpu time spent up to now is        7.8 secs

     End of band structure calculation

     Number of k-points >= 100: set verbosity='high' to print the bands.

     highest occupied level (ev):     5.9601

     Writing output data file Si.save

                                                                                

     bravais-lattice index     =            2
     lattice parameter (alat)  =      10.2000  a.u.
     unit-cell volume          =     265.3020 (a.u.)^3
     number of atoms/cell      =            2
     number of atomic types    =            1
     kinetic-energy cut-off    =      16.0000  Ry
     charge density cut-off    =      64.0000  Ry
     convergence threshold     =      1.0E-14
     beta                      =       0.7000
     number of iterations used =            4
     Exchange-correlation      =  SLA  PZ   NOGX NOGC ( 1  1  0  0 0 0)


     celldm(1)=   10.20000  celldm(2)=    0.00000  celldm(3)=    0.00000
     celldm(4)=    0.00000  celldm(5)=    0.00000  celldm(6)=    0.00000

     crystal axes: (cart. coord. in units of alat)
               a(1) = ( -0.5000  0.0000  0.5000 )  
               a(2) = (  0.0000  0.5000  0.5000 )  
               a(3) = ( -0.5000  0.5000  0.0000 )  

     reciprocal axes: (cart. coord. in units 2 pi/alat)
               b(1) = ( -1.0000 -1.0000  1.0000 )  
               b(2) = (  1.0000  1.0000  1.0000 )  
               b(3) = ( -1.0000  1.0000 -1.0000 )  


     Atoms inside the unit cell: 

     Cartesian axes

     site n.  atom      mass           positions (alat units)
        1     Si  28.0855   tau(    1) = (    0.00000    0.00000    0.00000  )
        2     Si  28.0855   tau(    2) = (    0.25000    0.25000    0.25000  )

     Computing dynamical matrix for 
                    q = (   0.7500000  -0.2500000   0.7500000 )
 
      2 Sym.Ops. (no q -> -q+G )


     G cutoff =  168.6633  (   1139 G-vectors)     FFT grid: ( 20, 20, 20)
     number of k points=   288

     PseudoPot. # 1 for Si read from file:
     ./Si.vbc.UPF
     MD5 check sum: bcd8ae23180a2f07cc8655fe7dcd9644
     Pseudo is Norm-conserving, Zval =  4.0
     Generated by new atomic code, or converted to UPF format
     Using radial grid of  431 points,  2 beta functions with: 
                l(1) =   0
                l(2) =   1

     Mode symmetry, C_s (m)     point group:


     Atomic displacements:
     There are   6 irreducible representations

     Representation     1      1 modes -A'  To be done

     Representation     2      1 modes -A'  To be done

     Representation     3      1 modes -A'  To be done

     Representation     4      1 modes -A'  To be done

     Representation     5      1 modes -A''  To be done

     Representation     6      1 modes -A''  To be done



     Alpha used in Ewald sum =   0.7000
     PHONON       :  0m55.43s CPU     1m 1.88s WALL



     Representation #  1 mode #   1

     Self-consistent Calculation

      iter #   1 total cpu time :    62.9 secs   av.it.:   5.3
      thresh= 1.000E-02 alpha_mix =  0.700 |ddv_scf|^2 =  6.493E-05

      iter #   2 total cpu time :    64.2 secs   av.it.:   8.2
      thresh= 8.058E-04 alpha_mix =  0.700 |ddv_scf|^2 =  1.693E-04

      iter #   3 total cpu time :    65.4 secs   av.it.:   7.1
      thresh= 1.301E-03 alpha_mix =  0.700 |ddv_scf|^2 =  1.264E-06

      iter #   4 total cpu time :    66.7 secs   av.it.:   7.7
      thresh= 1.124E-04 alpha_mix =  0.700 |ddv_scf|^2 =  1.397E-08

      iter #   5 total cpu time :    68.0 secs   av.it.:   7.9
      thresh= 1.182E-05 alpha_mix =  0.700 |ddv_scf|^2 =  7.235E-10

      iter #   6 total cpu time :    69.3 secs   av.it.:   8.0
      thresh= 2.690E-06 alpha_mix =  0.700 |ddv_scf|^2 =  2.193E-11

      iter #   7 total cpu time :    70.6 secs   av.it.:   8.1
      thresh= 4.682E-07 alpha_mix =  0.700 |ddv_scf|^2 =  2.158E-12

      iter #   8 total cpu time :    71.9 secs   av.it.:   8.1
      thresh= 1.469E-07 alpha_mix =  0.700 |ddv_scf|^2 =  5.497E-13

      iter #   9 total cpu time :    73.1 secs   av.it.:   7.6
      thresh= 7.414E-08 alpha_mix =  0.700 |ddv_scf|^2 =  3.410E-13

      iter #  10 total cpu time :    74.3 secs   av.it.:   7.5
      thresh= 5.840E-08 alpha_mix =  0.700 |ddv_scf|^2 =  3.163E-14

      iter #  11 total cpu time :    75.6 secs   av.it.:   7.7
      thresh= 1.779E-08 alpha_mix =  0.700 |ddv_scf|^2 =  5.387E-16

     End of self-consistent calculation

     Convergence has been achieved 


     Representation #  2 mode #   2

     Self-consistent Calculation

      iter #   1 total cpu time :    76.6 secs   av.it.:   5.5
      thresh= 1.000E-02 alpha_mix =  0.700 |ddv_scf|^2 =  1.211E-04

      iter #   2 total cpu time :    77.9 secs   av.it.:   8.2
      thresh= 1.101E-03 alpha_mix =  0.700 |ddv_scf|^2 =  3.508E-04

      iter #   3 total cpu time :    79.1 secs   av.it.:   7.0
      thresh= 1.873E-03 alpha_mix =  0.700 |ddv_scf|^2 =  8.368E-07

      iter #   4 total cpu time :    80.4 secs   av.it.:   7.9
      thresh= 9.148E-05 alpha_mix =  0.700 |ddv_scf|^2 =  1.281E-08

      iter #   5 total cpu time :    81.7 secs   av.it.:   7.9
      thresh= 1.132E-05 alpha_mix =  0.700 |ddv_scf|^2 =  8.705E-10

      iter #   6 total cpu time :    82.9 secs   av.it.:   8.0
      thresh= 2.950E-06 alpha_mix =  0.700 |ddv_scf|^2 =  2.535E-11

      iter #   7 total cpu time :    84.2 secs   av.it.:   8.1
      thresh= 5.035E-07 alpha_mix =  0.700 |ddv_scf|^2 =  2.222E-12

      iter #   8 total cpu time :    85.5 secs   av.it.:   8.0
      thresh= 1.490E-07 alpha_mix =  0.700 |ddv_scf|^2 =  1.197E-13

      iter #   9 total cpu time :    86.8 secs   av.it.:   7.9
      thresh= 3.460E-08 alpha_mix =  0.700 |ddv_scf|^2 =  2.451E-13

      iter #  10 total cpu time :    88.0 secs   av.it.:   7.1
      thresh= 4.951E-08 alpha_mix =  0.700 |ddv_scf|^2 =  3.834E-15

     End of self-consistent calculation

     Convergence has been achieved 


     Representation #  3 mode #   3

     Self-consistent Calculation

      iter #   1 total cpu time :    89.1 secs   av.it.:   5.4
      thresh= 1.000E-02 alpha_mix =  0.700 |ddv_scf|^2 =  9.691E-05

      iter #   2 total cpu time :    90.4 secs   av.it.:   8.1
      thresh= 9.844E-04 alpha_mix =  0.700 |ddv_scf|^2 =  2.651E-04

      iter #   3 total cpu time :    91.6 secs   av.it.:   7.1
      thresh= 1.628E-03 alpha_mix =  0.700 |ddv_scf|^2 =  1.468E-06

      iter #   4 total cpu time :    92.8 secs   av.it.:   7.6
      thresh= 1.211E-04 alpha_mix =  0.700 |ddv_scf|^2 =  1.259E-08

      iter #   5 total cpu time :    94.1 secs   av.it.:   8.0
      thresh= 1.122E-05 alpha_mix =  0.700 |ddv_scf|^2 =  6.814E-10

      iter #   6 total cpu time :    95.4 secs   av.it.:   8.0
      thresh= 2.610E-06 alpha_mix =  0.700 |ddv_scf|^2 =  2.409E-11

      iter #   7 total cpu time :    96.7 secs   av.it.:   8.0
      thresh= 4.908E-07 alpha_mix =  0.700 |ddv_scf|^2 =  1.104E-12

      iter #   8 total cpu time :    98.0 secs   av.it.:   8.3
      thresh= 1.051E-07 alpha_mix =  0.700 |ddv_scf|^2 =  2.158E-13

      iter #   9 total cpu time :    99.3 secs   av.it.:   7.6
      thresh= 4.645E-08 alpha_mix =  0.700 |ddv_scf|^2 =  9.197E-14

      iter #  10 total cpu time :   100.5 secs   av.it.:   7.6
      thresh= 3.033E-08 alpha_mix =  0.700 |ddv_scf|^2 =  3.449E-14

      iter #  11 total cpu time :   101.7 secs   av.it.:   7.1
      thresh= 1.857E-08 alpha_mix =  0.700 |ddv_scf|^2 =  1.518E-16

     End of self-consistent calculation

[...]
        k(   51) = (  -0.1250000  -0.3750000   0.8750000), wk =   0.0625000
        k(   52) = (  -0.6250000  -1.3750000   0.8750000), wk =   0.0000000
        k(   53) = (   0.3750000   0.8750000   0.1250000), wk =   0.0625000
        k(   54) = (  -0.1250000  -0.1250000   0.1250000), wk =   0.0000000
        k(   55) = (  -0.3750000   0.8750000  -0.1250000), wk =   0.0625000
        k(   56) = (  -0.8750000  -0.1250000  -0.1250000), wk =   0.0000000
        k(   57) = (  -0.6250000  -0.6250000  -0.1250000), wk =   0.0625000
        k(   58) = (  -1.1250000  -1.6250000  -0.1250000), wk =   0.0000000
        k(   59) = (   0.6250000   0.6250000   0.1250000), wk =   0.0625000
        k(   60) = (   0.1250000  -0.3750000   0.1250000), wk =   0.0000000
        k(   61) = (  -0.6250000  -0.3750000  -0.3750000), wk =   0.0625000
        k(   62) = (  -1.1250000  -1.3750000  -0.3750000), wk =   0.0000000
        k(   63) = (  -0.3750000  -0.3750000   0.6250000), wk =   0.0625000
        k(   64) = (  -0.8750000  -1.3750000   0.6250000), wk =   0.0000000

     Dense  grid:     2277 G-vectors     FFT dimensions: (  20,  20,  20)

     Largest allocated arrays     est. size (Mb)     dimensions
        Kohn-Sham Wavefunctions         0.01 Mb     (     167,    4)
        NL pseudopotentials             0.02 Mb     (     167,    8)
        Each V/rho on FFT grid          0.06 Mb     (    4000)
        Each G-vector array             0.01 Mb     (    1139)
        G-vector shells                 0.00 Mb     (      58)
     Largest temporary arrays     est. size (Mb)     dimensions
        Auxiliary wavefunctions         0.04 Mb     (     167,   16)
        Each subspace H/S matrix        0.00 Mb     (      16,   16)
        Each <psi_i|beta_j> matrix      0.00 Mb     (       8,    4)

     The potential is recalculated from file :
     ./out/_ph0/Si.save/charge-density.dat

     Starting wfc are    8 atomic wfcs

     Band Structure Calculation
     Davidson diagonalization with overlap

     ethr =  1.25E-10,  avg # of iterations = 11.4

     total cpu time spent up to now is       12.0 secs

     End of band structure calculation

          k = 0.1250 0.1250 0.1250 (   295 PWs)   bands (ev):

    -5.5991   4.6524   5.9601   5.9601

          k =-0.3750-0.8750 0.1250 (   283 PWs)   bands (ev):

    -2.2583  -0.6913   2.0848   3.2152

          k = 0.1250 0.1250 0.3750 (   293 PWs)   bands (ev):

    -5.0461   3.0247   4.9038   4.9946

          k =-0.3750-0.8750 0.3750 (   286 PWs)   bands (ev):

    -2.8126  -0.4288   2.1661   4.3260

          k = 0.1250 0.1250 0.6250 (   289 PWs)   bands (ev):

    -3.9779   1.3239   3.5204   3.9946

          k =-0.3750-0.8750 0.6250 (   288 PWs)   bands (ev):

    -3.5383   0.3849   2.8610   4.2772

          k = 0.1250 0.1250 0.8750 (   286 PWs)   bands (ev):

    -2.4499  -0.5803   2.7288   3.5105

          k =-0.3750-0.8750 0.8750 (   289 PWs)   bands (ev):

    -3.9779   1.3239   3.5204   3.9946

          k = 0.1250 0.3750 0.3750 (   292 PWs)   bands (ev):

    -4.5266   1.6005   3.8940   5.4660

          k =-0.3750-0.6250 0.3750 (   281 PWs)   bands (ev):

    -3.3195  -0.5726   3.9395   4.6600

          k = 0.1250 0.3750 0.6250 (   288 PWs)   bands (ev):

    -3.5383   0.3849   2.8610   4.2772

          k =-0.3750-0.6250 0.6250 (   281 PWs)   bands (ev):

    -3.3195  -0.5726   3.9395   4.6600

          k = 0.1250 0.3750 0.8750 (   283 PWs)   bands (ev):

    -2.2583  -0.6913   2.0848   3.2152

          k =-0.3750-0.6250 0.8750 (   288 PWs)   bands (ev):

    -3.5383   0.3849   2.8610   4.2772

          k = 0.1250 0.6250 0.6250 (   286 PWs)   bands (ev):

    -2.8126  -0.4288   2.1661   4.3260

          k =-0.3750-0.3750 0.6250 (   281 PWs)   bands (ev):

    -3.3195  -0.5726   3.9395   4.6600

          k = 0.3750 0.3750 0.3750 (   281 PWs)   bands (ev):

    -4.0665   0.2415   5.1458   5.1458

          k =-0.1250-0.6250 0.3750 (   288 PWs)   bands (ev):

    -3.5383   0.3849   2.8610   4.2772

          k = 0.3750 0.3750 0.6250 (   281 PWs)   bands (ev):

    -3.3195  -0.5726   3.9395   4.6600

          k =-0.1250-0.6250 0.6250 (   286 PWs)   bands (ev):

    -2.8126  -0.4288   2.1661   4.3260

          k =-0.3750-0.1250-0.1250 (   293 PWs)   bands (ev):

    -5.0461   3.0247   4.9038   4.9946

          k =-0.8750-1.1250-0.1250 (   286 PWs)   bands (ev):

    -2.4499  -0.5803   2.7288   3.5105

          k =-0.1250-0.1250 0.3750 (   293 PWs)   bands (ev):

    -5.0461   3.0247   4.9038   4.9946

          k =-0.6250-1.1250 0.3750 (   288 PWs)   bands (ev):

    -3.5383   0.3849   2.8610   4.2772

          k =-0.6250-0.1250-0.1250 (   289 PWs)   bands (ev):

    -3.9779   1.3239   3.5204   3.9946

          k =-1.1250-1.1250-0.1250 (   286 PWs)   bands (ev):

    -2.4499  -0.5803   2.7288   3.5105

          k =-0.1250-0.1250 0.6250 (   289 PWs)   bands (ev):

    -3.9779   1.3239   3.5204   3.9946

          k =-0.6250-1.1250 0.6250 (   292 PWs)   bands (ev):

    -4.5266   1.6005   3.8940   5.4660

          k =-0.8750-0.1250-0.1250 (   286 PWs)   bands (ev):

    -2.4499  -0.5803   2.7288   3.5105

          k =-1.3750-1.1250-0.1250 (   283 PWs)   bands (ev):

    -2.2583  -0.6913   2.0848   3.2152

          k =-0.1250-0.1250 0.8750 (   286 PWs)   bands (ev):

    -2.4499  -0.5803   2.7288   3.5105

          k =-0.6250-1.1250 0.8750 (   293 PWs)   bands (ev):

    -5.0461   3.0247   4.9038   4.9946

          k =-0.3750-0.3750-0.1250 (   292 PWs)   bands (ev):

    -4.5266   1.6005   3.8940   5.4660

          k =-0.8750-1.3750-0.1250 (   283 PWs)   bands (ev):

    -2.2583  -0.6913   2.0848   3.2152

          k = 0.3750 0.3750 0.1250 (   292 PWs)   bands (ev):

    -4.5266   1.6005   3.8940   5.4660

          k =-0.1250-0.6250 0.1250 (   289 PWs)   bands (ev):

    -3.9779   1.3239   3.5204   3.9946

          k =-0.6250-0.3750-0.1250 (   288 PWs)   bands (ev):

    -3.5383   0.3849   2.8610   4.2772

          k =-1.1250-1.3750-0.1250 (   283 PWs)   bands (ev):

    -2.2583  -0.6913   2.0848   3.2152

          k = 0.6250 0.3750 0.1250 (   288 PWs)   bands (ev):

    -3.5383   0.3849   2.8610   4.2772

          k = 0.1250-0.6250 0.1250 (   289 PWs)   bands (ev):

    -3.9779   1.3239   3.5204   3.9946

          k =-0.1250-0.3750 0.6250 (   288 PWs)   bands (ev):

    -3.5383   0.3849   2.8610   4.2772

          k =-0.6250-1.3750 0.6250 (   281 PWs)   bands (ev):

    -4.0665   0.2415   5.1458   5.1458

          k = 0.3750 0.6250 0.1250 (   288 PWs)   bands (ev):

    -3.5383   0.3849   2.8610   4.2772

          k =-0.1250-0.3750 0.1250 (   293 PWs)   bands (ev):

    -5.0461   3.0247   4.9038   4.9946

          k =-0.3750 0.6250-0.1250 (   288 PWs)   bands (ev):

    -3.5383   0.3849   2.8610   4.2772

          k =-0.8750-0.3750-0.1250 (   283 PWs)   bands (ev):

    -2.2583  -0.6913   2.0848   3.2152

          k =-0.8750-0.3750-0.1250 (   283 PWs)   bands (ev):

    -2.2583  -0.6913   2.0848   3.2152

          k =-1.3750-1.3750-0.1250 (   286 PWs)   bands (ev):

    -2.8126  -0.4288   2.1661   4.3260

          k = 0.8750 0.3750 0.1250 (   283 PWs)   bands (ev):

    -2.2583  -0.6913   2.0848   3.2152

          k = 0.3750-0.6250 0.1250 (   288 PWs)   bands (ev):

    -3.5383   0.3849   2.8610   4.2772

          k =-0.1250-0.3750 0.8750 (   283 PWs)   bands (ev):

    -2.2583  -0.6913   2.0848   3.2152

          k =-0.6250-1.3750 0.8750 (   292 PWs)   bands (ev):

    -4.5266   1.6005   3.8940   5.4660

          k = 0.3750 0.8750 0.1250 (   283 PWs)   bands (ev):

    -2.2583  -0.6913   2.0848   3.2152

          k =-0.1250-0.1250 0.1250 (   295 PWs)   bands (ev):

    -5.5991   4.6524   5.9601   5.9601

          k =-0.3750 0.8750-0.1250 (   283 PWs)   bands (ev):

    -2.2583  -0.6913   2.0848   3.2152

          k =-0.8750-0.1250-0.1250 (   286 PWs)   bands (ev):

    -2.4499  -0.5803   2.7288   3.5105

          k =-0.6250-0.6250-0.1250 (   286 PWs)   bands (ev):

    -2.8126  -0.4288   2.1661   4.3260

          k =-1.1250-1.6250-0.1250 (   283 PWs)   bands (ev):

    -2.2583  -0.6913   2.0848   3.2152

          k = 0.6250 0.6250 0.1250 (   286 PWs)   bands (ev):

    -2.8126  -0.4288   2.1661   4.3260

          k = 0.1250-0.3750 0.1250 (   293 PWs)   bands (ev):

    -5.0461   3.0247   4.9038   4.9946

          k =-0.6250-0.3750-0.3750 (   281 PWs)   bands (ev):

    -3.3195  -0.5726   3.9395   4.6600

          k =-1.1250-1.3750-0.3750 (   288 PWs)   bands (ev):

    -3.5383   0.3849   2.8610   4.2772

          k =-0.3750-0.3750 0.6250 (   281 PWs)   bands (ev):

    -3.3195  -0.5726   3.9395   4.6600

          k =-0.8750-1.3750 0.6250 (   292 PWs)   bands (ev):

    -4.5266   1.6005   3.8940   5.4660

     highest occupied level (ev):     5.9601

     Writing output data file Si.save

                                                                                

     bravais-lattice index     =            2
     lattice parameter (alat)  =      10.2000  a.u.
     unit-cell volume          =     265.3020 (a.u.)^3
     number of atoms/cell      =            2
     number of atomic types    =            1
     kinetic-energy cut-off    =      16.0000  Ry
     charge density cut-off    =      64.0000  Ry
     convergence threshold     =      1.0E-14
     beta                      =       0.7000
     number of iterations used =            4
     Exchange-correlation      =  SLA  PZ   NOGX NOGC ( 1  1  0  0 0 0)


     celldm(1)=   10.20000  celldm(2)=    0.00000  celldm(3)=    0.00000
     celldm(4)=    0.00000  celldm(5)=    0.00000  celldm(6)=    0.00000

     crystal axes: (cart. coord. in units of alat)
               a(1) = ( -0.5000  0.0000  0.5000 )  
               a(2) = (  0.0000  0.5000  0.5000 )  
               a(3) = ( -0.5000  0.5000  0.0000 )  

     reciprocal axes: (cart. coord. in units 2 pi/alat)
               b(1) = ( -1.0000 -1.0000  1.0000 )  
               b(2) = (  1.0000  1.0000  1.0000 )  
               b(3) = ( -1.0000  1.0000 -1.0000 )  


     Atoms inside the unit cell: 

     Cartesian axes

     site n.  atom      mass           positions (alat units)
        1     Si  28.0855   tau(    1) = (    0.00000    0.00000    0.00000  )
        2     Si  28.0855   tau(    2) = (    0.25000    0.25000    0.25000  )

     Computing dynamical matrix for 
                    q = (  -0.5000000  -1.0000000   0.0000000 )
 
      8 Sym.Ops. (no q -> -q+G )


     G cutoff =  168.6633  (   1139 G-vectors)     FFT grid: ( 20, 20, 20)
     number of k points=    64

     PseudoPot. # 1 for Si read from file:
     ./Si.vbc.UPF
     MD5 check sum: bcd8ae23180a2f07cc8655fe7dcd9644
     Pseudo is Norm-conserving, Zval =  4.0
     Generated by new atomic code, or converted to UPF format
     Using radial grid of  431 points,  2 beta functions with: 
                l(1) =   0
                l(2) =   1


     Atomic displacements:
     There are   3 irreducible representations

     Representation     1      2 modes -  To be done

     Representation     2      2 modes -  To be done

     Representation     3      2 modes -  To be done



     Alpha used in Ewald sum =   0.7000
     PHONON       :  2m33.15s CPU     2m47.76s WALL



     Representation #  1 modes #   1  2

     Self-consistent Calculation

      iter #   1 total cpu time :   168.2 secs   av.it.:   5.5
      thresh= 1.000E-02 alpha_mix =  0.700 |ddv_scf|^2 =  7.825E-06

      iter #   2 total cpu time :   168.9 secs   av.it.:   9.2
      thresh= 2.797E-04 alpha_mix =  0.700 |ddv_scf|^2 =  4.967E-06

      iter #   3 total cpu time :   169.5 secs   av.it.:   8.6
      thresh= 2.229E-04 alpha_mix =  0.700 |ddv_scf|^2 =  2.049E-10

      iter #   4 total cpu time :   170.2 secs   av.it.:   8.6
      thresh= 1.432E-06 alpha_mix =  0.700 |ddv_scf|^2 =  1.496E-11

      iter #   5 total cpu time :   170.8 secs   av.it.:   8.8
      thresh= 3.868E-07 alpha_mix =  0.700 |ddv_scf|^2 =  2.799E-14

      iter #   6 total cpu time :   171.4 secs   av.it.:   9.2
      thresh= 1.673E-08 alpha_mix =  0.700 |ddv_scf|^2 =  3.461E-16

     End of self-consistent calculation

     Convergence has been achieved 


     Representation #  2 modes #   3  4

     Self-consistent Calculation

      iter #   1 total cpu time :   171.9 secs   av.it.:   5.3
      thresh= 1.000E-02 alpha_mix =  0.700 |ddv_scf|^2 =  1.045E-05

      iter #   2 total cpu time :   172.6 secs   av.it.:   9.1
      thresh= 3.233E-04 alpha_mix =  0.700 |ddv_scf|^2 =  1.336E-05

      iter #   3 total cpu time :   173.2 secs   av.it.:   8.4
      thresh= 3.655E-04 alpha_mix =  0.700 |ddv_scf|^2 =  1.618E-09

      iter #   4 total cpu time :   173.8 secs   av.it.:   8.7
      thresh= 4.023E-06 alpha_mix =  0.700 |ddv_scf|^2 =  2.996E-11

      iter #   5 total cpu time :   174.5 secs   av.it.:   8.5
      thresh= 5.474E-07 alpha_mix =  0.700 |ddv_scf|^2 =  1.190E-13

      iter #   6 total cpu time :   175.1 secs   av.it.:   8.3
      thresh= 3.449E-08 alpha_mix =  0.700 |ddv_scf|^2 =  2.324E-15

     End of self-consistent calculation

     Convergence has been achieved 


     Representation #  3 modes #   5  6

     Self-consistent Calculation

      iter #   1 total cpu time :   175.6 secs   av.it.:   5.2
      thresh= 1.000E-02 alpha_mix =  0.700 |ddv_scf|^2 =  3.088E-06

      iter #   2 total cpu time :   176.3 secs   av.it.:   9.2
      thresh= 1.757E-04 alpha_mix =  0.700 |ddv_scf|^2 =  2.014E-06

      iter #   3 total cpu time :   176.9 secs   av.it.:   8.6
      thresh= 1.419E-04 alpha_mix =  0.700 |ddv_scf|^2 =  2.086E-10

      iter #   4 total cpu time :   177.5 secs   av.it.:   8.8
      thresh= 1.444E-06 alpha_mix =  0.700 |ddv_scf|^2 =  2.170E-11

      iter #   5 total cpu time :   178.2 secs   av.it.:   8.7
      thresh= 4.658E-07 alpha_mix =  0.700 |ddv_scf|^2 =  1.509E-14

      iter #   6 total cpu time :   178.8 secs   av.it.:   9.2
      thresh= 1.229E-08 alpha_mix =  0.700 |ddv_scf|^2 =  2.281E-16

     End of self-consistent calculation

     Convergence has been achieved 
 
     Number of q in the star =    6
     List of q in the star:
          1  -0.500000000  -1.000000000   0.000000000
          2   0.000000000   1.000000000   0.500000000
          3   0.000000000  -1.000000000  -0.500000000
          4   0.500000000   1.000000000   0.000000000
          5  -1.000000000  -0.500000000   0.000000000
          6   0.000000000  -0.500000000  -1.000000000

     Diagonalizing the dynamical matrix

     q = (   -0.500000000  -1.000000000   0.000000000 ) 

 **************************************************************************
     freq (    1) =       6.109513 [THz] =     203.791414 [cm-1]
     freq (    2) =       6.109513 [THz] =     203.791414 [cm-1]
     freq (    3) =      10.706338 [THz] =     357.124979 [cm-1]
     freq (    4) =      10.706338 [THz] =     357.124979 [cm-1]
     freq (    5) =      14.140365 [THz] =     471.671810 [cm-1]
     freq (    6) =      14.140365 [THz] =     471.671810 [cm-1]
 **************************************************************************
 
     init_run     :      0.12s CPU      0.17s WALL (       7 calls)
     electrons    :      9.76s CPU     10.08s WALL (       7 calls)

     Called by init_run:
     wfcinit      :      0.00s CPU      0.01s WALL (       7 calls)
     potinit      :      0.01s CPU      0.03s WALL (       7 calls)

     Called by electrons:
     c_bands      :      9.75s CPU     10.08s WALL (       7 calls)
     v_of_rho     :      0.00s CPU      0.00s WALL (       8 calls)

     Called by c_bands:
     init_us_2    :      0.71s CPU      0.74s WALL (   19234 calls)
     cegterg      :      7.98s CPU      8.21s WALL (     796 calls)

     Called by sum_band:

     Called by *egterg:
     h_psi        :      7.72s CPU      7.95s WALL (   10666 calls)
     g_psi        :      0.06s CPU      0.07s WALL (    9074 calls)
     cdiaghg      :      0.93s CPU      0.96s WALL (    9870 calls)

     Called by h_psi:
     add_vuspsi   :      2.44s CPU      2.60s WALL (  174035 calls)

     General routines
     calbec       :      5.06s CPU      5.30s WALL (  351306 calls)
     fft          :      0.12s CPU      0.12s WALL (    1001 calls)
     ffts         :      0.29s CPU      0.31s WALL (    2700 calls)
     fftw         :    119.12s CPU    122.30s WALL ( 1546604 calls)
     davcio       :      0.42s CPU      1.34s WALL (   89958 calls)
 
     Parallel routines
     fft_scatter  :     35.26s CPU     37.02s WALL ( 1550305 calls)
 
     PHONON       :  2m43.28s CPU     2m58.89s WALL

     INITIALIZATION: 
     phq_setup    :      0.05s CPU      0.11s WALL (       8 calls)
     phq_init     :      0.21s CPU      0.31s WALL (       8 calls)
 
     phq_init     :      0.21s CPU      0.31s WALL (       8 calls)
     init_vloc    :      0.00s CPU      0.00s WALL (       8 calls)
     init_us_1    :      0.04s CPU      0.04s WALL (       8 calls)
 
     DYNAMICAL MATRIX:
     dynmat0      :      0.11s CPU      0.18s WALL (       8 calls)
     phqscf       :    149.00s CPU    162.72s WALL (       8 calls)
     dynmatrix    :      0.02s CPU      0.15s WALL (       8 calls)
 
     phqscf       :    149.00s CPU    162.72s WALL (       8 calls)
     solve_linter :    148.59s CPU    161.80s WALL (      32 calls)
     drhodv       :      0.31s CPU      0.35s WALL (      32 calls)
 
     dynmat0      :      0.11s CPU      0.18s WALL (       8 calls)
     dynmat_us    :      0.09s CPU      0.13s WALL (       8 calls)
     d2ionq       :      0.00s CPU      0.00s WALL (       8 calls)
 
     dynmat_us    :      0.09s CPU      0.13s WALL (       8 calls)
 
     phqscf       :    149.00s CPU    162.72s WALL (       8 calls)
     solve_linter :    148.59s CPU    161.80s WALL (      32 calls)
 
     solve_linter :    148.59s CPU    161.80s WALL (      32 calls)
     dvqpsi_us    :      2.34s CPU      2.41s WALL (    2508 calls)
     ortho        :      0.65s CPU      0.65s WALL (   18286 calls)
     cgsolve      :    118.16s CPU    122.45s WALL (   18286 calls)
     incdrhoscf   :     14.12s CPU     14.46s WALL (   18256 calls)
     vpsifft      :     11.41s CPU     11.79s WALL (   15658 calls)
     dv_of_drho   :      0.12s CPU      0.12s WALL (     323 calls)
     mix_pot      :      0.29s CPU      3.71s WALL (     226 calls)
     psymdvscf    :      1.36s CPU      1.36s WALL (     221 calls)
 
     dvqpsi_us    :      2.34s CPU      2.41s WALL (    2508 calls)
     dvqpsi_us_on :      0.20s CPU      0.21s WALL (    2508 calls)
 
     cgsolve      :    118.16s CPU    122.45s WALL (   18286 calls)
     ch_psi       :    114.56s CPU    118.87s WALL (  163369 calls)
 
     ch_psi       :    114.56s CPU    118.87s WALL (  163369 calls)
     h_psiq       :    107.59s CPU    111.55s WALL (  163369 calls)
     last         :      6.24s CPU      6.47s WALL (  163369 calls)
 
     h_psiq       :    107.59s CPU    111.55s WALL (  163369 calls)
     firstfft     :     50.05s CPU     51.25s WALL (  586876 calls)
     secondfft    :     45.53s CPU     47.55s WALL (  586876 calls)
     add_vuspsi   :      2.44s CPU      2.60s WALL (  174035 calls)
 
     incdrhoscf   :     14.12s CPU     14.46s WALL (   18256 calls)
 
 
      General routines
     calbec       :      5.06s CPU      5.30s WALL (  351306 calls)
     fft          :      0.12s CPU      0.12s WALL (    1001 calls)
     ffts         :      0.29s CPU      0.31s WALL (    2700 calls)
     fftw         :    119.12s CPU    122.30s WALL ( 1546604 calls)
     davcio       :      0.42s CPU      1.34s WALL (   89958 calls)
     write_rec    :      0.38s CPU      4.87s WALL (     258 calls)
 
 
     PHONON       :  2m43.28s CPU     2m58.89s WALL

 
   This run was terminated on:  14:33:32  18Sep2015            

=------------------------------------------------------------------------------=
   JOB DONE.
=------------------------------------------------------------------------------=
