
     Program Q2R v.5.0.2 (svn rev. 9392) starts on  4Sep2016 at 13: 1:42 

     This program is part of the open-source Quantum ESPRESSO suite
     for quantum simulation of materials; please cite
         "P. Giannozzi et al., J. Phys.:Condens. Matter 21 395502 (2009);
          URL http://www.quantum-espresso.org", 
     in publications or presentations arising from this work. More details at
     http://www.quantum-espresso.org/quote.php

     Parallel version (MPI), running on     1 processors

     reading grid info from file si.dyn0
  reading force constants from file si.dyn1
 macroscopic fields = T
  14.56803   0.00000   0.00000
  -0.00000  14.56803  -0.00000
   0.00000  -0.00000  14.56803
  na=            1
  -0.08962   0.00000  -0.00000
   0.00000  -0.08962  -0.00000
  -0.00000  -0.00000  -0.08962
  na=            2
  -0.09078   0.00000   0.00000
   0.00000  -0.09078   0.00000
   0.00000  -0.00000  -0.09078
  nqs=            1
 q=   0.00000000  0.00000000  0.00000000
  reading force constants from file si.dyn2
  nqs=            8
 q=  -0.25000000  0.25000000 -0.25000000
 q=   0.25000000 -0.25000000  0.25000000
 q=   0.25000000 -0.25000000 -0.25000000
 q=  -0.25000000  0.25000000  0.25000000
 q=  -0.25000000 -0.25000000  0.25000000
 q=   0.25000000  0.25000000 -0.25000000
 q=   0.25000000  0.25000000  0.25000000
 q=  -0.25000000 -0.25000000 -0.25000000
  reading force constants from file si.dyn3
  nqs=            4
 q=   0.50000000 -0.50000000  0.50000000
 q=  -0.50000000  0.50000000  0.50000000
 q=   0.50000000  0.50000000 -0.50000000
 q=  -0.50000000 -0.50000000 -0.50000000
  reading force constants from file si.dyn4
  nqs=            6
 q=   0.00000000  0.50000000  0.00000000
 q=  -0.50000000  0.00000000  0.00000000
 q=   0.00000000 -0.50000000  0.00000000
 q=   0.00000000  0.00000000  0.50000000
 q=   0.00000000  0.00000000 -0.50000000
 q=   0.50000000  0.00000000  0.00000000
  reading force constants from file si.dyn5
  nqs=           24
 q=   0.75000000 -0.25000000  0.75000000
 q=  -0.75000000  0.25000000 -0.75000000
 q=  -0.75000000 -0.25000000 -0.75000000
 q=   0.75000000  0.25000000  0.75000000
 q=   0.25000000 -0.75000000  0.75000000
 q=  -0.25000000  0.75000000 -0.75000000
 q=  -0.75000000  0.25000000  0.75000000
 q=   0.75000000 -0.25000000 -0.75000000
 q=   0.75000000  0.25000000 -0.75000000
 q=  -0.75000000 -0.25000000  0.75000000
 q=   0.75000000  0.75000000 -0.25000000
 q=  -0.75000000 -0.75000000  0.25000000
 q=  -0.75000000 -0.75000000 -0.25000000
 q=   0.75000000  0.75000000  0.25000000
 q=  -0.75000000  0.75000000  0.25000000
 q=   0.75000000 -0.75000000 -0.25000000
 q=  -0.25000000  0.75000000  0.75000000
 q=   0.25000000 -0.75000000 -0.75000000
 q=   0.25000000  0.75000000 -0.75000000
 q=  -0.25000000 -0.75000000  0.75000000
 q=  -0.25000000 -0.75000000 -0.75000000
 q=   0.25000000  0.75000000  0.75000000
 q=   0.75000000 -0.75000000  0.25000000
 q=  -0.75000000  0.75000000 -0.25000000
  reading force constants from file si.dyn6
  nqs=           12
 q=   0.50000000  0.00000000  0.50000000
 q=  -0.50000000  0.00000000 -0.50000000
 q=   0.00000000 -0.50000000  0.50000000
 q=  -0.50000000  0.00000000  0.50000000
 q=   0.50000000  0.00000000 -0.50000000
 q=   0.50000000  0.50000000  0.00000000
 q=  -0.50000000 -0.50000000  0.00000000
 q=  -0.50000000  0.50000000  0.00000000
 q=   0.00000000  0.50000000  0.50000000
 q=   0.00000000  0.50000000 -0.50000000
 q=   0.00000000 -0.50000000 -0.50000000
 q=   0.50000000 -0.50000000  0.00000000
  reading force constants from file si.dyn7
  nqs=            3
 q=   0.00000000 -1.00000000  0.00000000
 q=   0.00000000  0.00000000 -1.00000000
 q=  -1.00000000  0.00000000  0.00000000
  reading force constants from file si.dyn8
  nqs=            6
 q=  -0.50000000 -1.00000000  0.00000000
 q=   0.00000000  1.00000000 -0.50000000
 q=   0.00000000  1.00000000  0.50000000
 q=   0.50000000  1.00000000  0.00000000
 q=   0.00000000 -0.50000000 -1.00000000
 q=   0.00000000  0.50000000 -1.00000000

      q-space grid ok, #points =   64

      fft-check success (sum of imaginary terms < 10^-12)

     Q2R          :     0.01s CPU         0.01s WALL


   This run was terminated on:  13: 1:42   4Sep2016            

=------------------------------------------------------------------------------=
   JOB DONE.
=------------------------------------------------------------------------------=
