
     Program PWSCF v.5.0.2 (svn rev. 9392) starts on  6Oct2016 at 17:18:13 

     This program is part of the open-source Quantum ESPRESSO suite
     for quantum simulation of materials; please cite
         "P. Giannozzi et al., J. Phys.:Condens. Matter 21 395502 (2009);
          URL http://www.quantum-espresso.org", 
     in publications or presentations arising from this work. More details at
     http://www.quantum-espresso.org/quote.php

     Parallel version (MPI), running on     8 processors
     R & G space division:  proc/nbgrp/npool/nimage =       8

     Current dimensions of program PWSCF are:
     Max number of different atomic species (ntypx) = 10
     Max number of k-points (npk) =  40000
     Max angular momentum in pseudopotentials (lmaxx) =  3
     Waiting for input...
     Reading input from standard input

     Subspace diagonalization in iterative solution of the eigenvalue problem:
     a serial algorithm will be used

 
     Parallelization info
     --------------------
     sticks:   dense  smooth     PW     G-vecs:    dense   smooth      PW
     Min          69      47     15                 1097      609     117
     Max          70      48     16                 1101      621     121
     Sum         559     379    121                 8801     4909     941
 


     bravais-lattice index     =            2
     lattice parameter (alat)  =      10.1100  a.u.
     unit-cell volume          =     258.3411 (a.u.)^3
     number of atoms/cell      =            2
     number of atomic types    =            1
     number of electrons       =         8.00
     number of Kohn-Sham states=            4
     kinetic-energy cutoff     =      27.0000  Ry
     charge density cutoff     =     160.0000  Ry
     convergence threshold     =      1.0E-09
     mixing beta               =       0.7000
     number of iterations used =            8  plain     mixing
     Exchange-correlation      = PBESOL ( 1 410 8 0)
     EXX-fraction              =        0.00

     celldm(1)=  10.110000  celldm(2)=   0.000000  celldm(3)=   0.000000
     celldm(4)=   0.000000  celldm(5)=   0.000000  celldm(6)=   0.000000

     crystal axes: (cart. coord. in units of alat)
               a(1) = (  -0.500000   0.000000   0.500000 )  
               a(2) = (   0.000000   0.500000   0.500000 )  
               a(3) = (  -0.500000   0.500000   0.000000 )  

     reciprocal axes: (cart. coord. in units 2 pi/alat)
               b(1) = ( -1.000000 -1.000000  1.000000 )  
               b(2) = (  1.000000  1.000000  1.000000 )  
               b(3) = ( -1.000000  1.000000 -1.000000 )  


     PseudoPot. # 1 for Si read from file:
     ./Si.pbesol-n-rrkjus_psl.1.0.0.UPF
     MD5 check sum: 8befc6ca08d45158dbd3e93582c1ea6d
     Pseudo is Ultrasoft + core correction, Zval =  4.0
     Generated using "atomic" code by A. Dal Corso  v.5.1
     Using radial grid of 1141 points,  6 beta functions with: 
                l(1) =   0
                l(2) =   0
                l(3) =   1
                l(4) =   1
                l(5) =   2
                l(6) =   2
     Q(r) pseudized with 0 coefficients 


     atomic species   valence    mass     pseudopotential
        Si             4.00    28.08600     Si( 1.00)

     24 Sym. Ops. (no inversion) found
          (note: 24 additional sym.ops. were found but ignored
           their fractional translations are incommensurate with FFT grid)

                                    s                        frac. trans.

      isym =  1     identity                                     

 cryst.   s( 1) = (     1          0          0      )
                  (     0          1          0      )
                  (     0          0          1      )

 cart.    s( 1) = (  1.0000000  0.0000000  0.0000000 )
                  (  0.0000000  1.0000000  0.0000000 )
                  (  0.0000000  0.0000000  1.0000000 )


      isym =  2     180 deg rotation - cart. axis [0,0,1]        

 cryst.   s( 2) = (     0          1         -1      )
                  (     1          0         -1      )
                  (     0          0         -1      )

 cart.    s( 2) = ( -1.0000000  0.0000000  0.0000000 )
                  (  0.0000000 -1.0000000  0.0000000 )
                  (  0.0000000  0.0000000  1.0000000 )


      isym =  3     180 deg rotation - cart. axis [0,1,0]        

 cryst.   s( 3) = (    -1          0          0      )
                  (    -1          0          1      )
                  (    -1          1          0      )

 cart.    s( 3) = ( -1.0000000  0.0000000  0.0000000 )
                  (  0.0000000  1.0000000  0.0000000 )
                  (  0.0000000  0.0000000 -1.0000000 )


      isym =  4     180 deg rotation - cart. axis [1,0,0]        

 cryst.   s( 4) = (     0         -1          1      )
                  (     0         -1          0      )
                  (     1         -1          0      )

 cart.    s( 4) = (  1.0000000  0.0000000  0.0000000 )
                  (  0.0000000 -1.0000000  0.0000000 )
                  (  0.0000000  0.0000000 -1.0000000 )


      isym =  5     120 deg rotation - cart. axis [-1,-1,-1]     

 cryst.   s( 5) = (    -1          0          1      )
                  (    -1          1          0      )
                  (    -1          0          0      )

 cart.    s( 5) = (  0.0000000  1.0000000  0.0000000 )
                  (  0.0000000  0.0000000  1.0000000 )
                  (  1.0000000  0.0000000  0.0000000 )


      isym =  6     120 deg rotation - cart. axis [-1,1,1]       

 cryst.   s( 6) = (     0          1          0      )
                  (     0          0          1      )
                  (     1          0          0      )

 cart.    s( 6) = (  0.0000000 -1.0000000  0.0000000 )
                  (  0.0000000  0.0000000  1.0000000 )
                  ( -1.0000000  0.0000000  0.0000000 )


      isym =  7     120 deg rotation - cart. axis [1,1,-1]       

 cryst.   s( 7) = (     1          0         -1      )
                  (     0          0         -1      )
                  (     0          1         -1      )

 cart.    s( 7) = (  0.0000000  1.0000000  0.0000000 )
                  (  0.0000000  0.0000000 -1.0000000 )
                  ( -1.0000000  0.0000000  0.0000000 )


      isym =  8     120 deg rotation - cart. axis [1,-1,1]       

 cryst.   s( 8) = (     0         -1          0      )
                  (     1         -1          0      )
                  (     0         -1          1      )

 cart.    s( 8) = (  0.0000000 -1.0000000  0.0000000 )
                  (  0.0000000  0.0000000 -1.0000000 )
                  (  1.0000000  0.0000000  0.0000000 )


      isym =  9     120 deg rotation - cart. axis [1,1,1]        

 cryst.   s( 9) = (     0          0         -1      )
                  (     0          1         -1      )
                  (     1          0         -1      )

 cart.    s( 9) = (  0.0000000  0.0000000  1.0000000 )
                  (  1.0000000  0.0000000  0.0000000 )
                  (  0.0000000  1.0000000  0.0000000 )


      isym = 10     120 deg rotation - cart. axis [-1,1,-1]      

 cryst.   s(10) = (    -1          1          0      )
                  (    -1          0          0      )
                  (    -1          0          1      )

 cart.    s(10) = (  0.0000000  0.0000000  1.0000000 )
                  ( -1.0000000  0.0000000  0.0000000 )
                  (  0.0000000 -1.0000000  0.0000000 )


      isym = 11     120 deg rotation - cart. axis [1,-1,-1]      

 cryst.   s(11) = (     0          0          1      )
                  (     1          0          0      )
                  (     0          1          0      )

 cart.    s(11) = (  0.0000000  0.0000000 -1.0000000 )
                  ( -1.0000000  0.0000000  0.0000000 )
                  (  0.0000000  1.0000000  0.0000000 )


      isym = 12     120 deg rotation - cart. axis [-1,-1,1]      

 cryst.   s(12) = (     1         -1          0      )
                  (     0         -1          1      )
                  (     0         -1          0      )

 cart.    s(12) = (  0.0000000  0.0000000 -1.0000000 )
                  (  1.0000000  0.0000000  0.0000000 )
                  (  0.0000000 -1.0000000  0.0000000 )


      isym = 13     inv. 180 deg rotation - cart. axis [1,1,0]   

 cryst.   s(13) = (     0          1          0      )
                  (     1          0          0      )
                  (     0          0          1      )

 cart.    s(13) = (  0.0000000 -1.0000000  0.0000000 )
                  ( -1.0000000  0.0000000  0.0000000 )
                  (  0.0000000  0.0000000  1.0000000 )


      isym = 14     inv. 180 deg rotation - cart. axis [1,-1,0]  

 cryst.   s(14) = (     1          0         -1      )
                  (     0          1         -1      )
                  (     0          0         -1      )

 cart.    s(14) = (  0.0000000  1.0000000  0.0000000 )
                  (  1.0000000  0.0000000  0.0000000 )
                  (  0.0000000  0.0000000  1.0000000 )


      isym = 15     inv.  90 deg rotation - cart. axis [0,0,-1]  

 cryst.   s(15) = (     0         -1          0      )
                  (     0         -1          1      )
                  (     1         -1          0      )

 cart.    s(15) = (  0.0000000 -1.0000000  0.0000000 )
                  (  1.0000000  0.0000000  0.0000000 )
                  (  0.0000000  0.0000000 -1.0000000 )


      isym = 16     inv.  90 deg rotation - cart. axis [0,0,1]   

 cryst.   s(16) = (    -1          0          1      )
                  (    -1          0          0      )
                  (    -1          1          0      )

 cart.    s(16) = (  0.0000000  1.0000000  0.0000000 )
                  ( -1.0000000  0.0000000  0.0000000 )
                  (  0.0000000  0.0000000 -1.0000000 )


      isym = 17     inv. 180 deg rotation - cart. axis [1,0,1]   

 cryst.   s(17) = (     1          0          0      )
                  (     0          0          1      )
                  (     0          1          0      )

 cart.    s(17) = (  0.0000000  0.0000000 -1.0000000 )
                  (  0.0000000  1.0000000  0.0000000 )
                  ( -1.0000000  0.0000000  0.0000000 )


      isym = 18     inv. 180 deg rotation - cart. axis [-1,0,1]  

 cryst.   s(18) = (    -1          0          0      )
                  (    -1          1          0      )
                  (    -1          0          1      )

 cart.    s(18) = (  0.0000000  0.0000000  1.0000000 )
                  (  0.0000000  1.0000000  0.0000000 )
                  (  1.0000000  0.0000000  0.0000000 )


      isym = 19     inv.  90 deg rotation - cart. axis [0,1,0]   

 cryst.   s(19) = (     0         -1          1      )
                  (     1         -1          0      )
                  (     0         -1          0      )

 cart.    s(19) = (  0.0000000  0.0000000 -1.0000000 )
                  (  0.0000000 -1.0000000  0.0000000 )
                  (  1.0000000  0.0000000  0.0000000 )


      isym = 20     inv.  90 deg rotation - cart. axis [0,-1,0]  

 cryst.   s(20) = (     0          1         -1      )
                  (     0          0         -1      )
                  (     1          0         -1      )

 cart.    s(20) = (  0.0000000  0.0000000  1.0000000 )
                  (  0.0000000 -1.0000000  0.0000000 )
                  ( -1.0000000  0.0000000  0.0000000 )


      isym = 21     inv. 180 deg rotation - cart. axis [0,1,1]   

 cryst.   s(21) = (     1         -1          0      )
                  (     0         -1          0      )
                  (     0         -1          1      )

 cart.    s(21) = (  1.0000000  0.0000000  0.0000000 )
                  (  0.0000000  0.0000000 -1.0000000 )
                  (  0.0000000 -1.0000000  0.0000000 )


      isym = 22     inv. 180 deg rotation - cart. axis [0,1,-1]  

 cryst.   s(22) = (     0          0          1      )
                  (     0          1          0      )
                  (     1          0          0      )

 cart.    s(22) = (  1.0000000  0.0000000  0.0000000 )
                  (  0.0000000  0.0000000  1.0000000 )
                  (  0.0000000  1.0000000  0.0000000 )


      isym = 23     inv.  90 deg rotation - cart. axis [-1,0,0]  

 cryst.   s(23) = (     0          0         -1      )
                  (     1          0         -1      )
                  (     0          1         -1      )

 cart.    s(23) = ( -1.0000000  0.0000000  0.0000000 )
                  (  0.0000000  0.0000000 -1.0000000 )
                  (  0.0000000  1.0000000  0.0000000 )


      isym = 24     inv.  90 deg rotation - cart. axis [1,0,0]   

 cryst.   s(24) = (    -1          1          0      )
                  (    -1          0          1      )
                  (    -1          0          0      )

 cart.    s(24) = ( -1.0000000  0.0000000  0.0000000 )
                  (  0.0000000  0.0000000  1.0000000 )
                  (  0.0000000 -1.0000000  0.0000000 )


     point group T_d (-43m) 
     there are  5 classes
     the character table:

       E     8C3   3C2   6S4   6s_d 
A_1    1.00  1.00  1.00  1.00  1.00
A_2    1.00  1.00  1.00 -1.00 -1.00
E      2.00 -1.00  2.00  0.00  0.00
T_1    3.00  0.00 -1.00  1.00 -1.00
T_2    3.00  0.00 -1.00 -1.00  1.00

     the symmetry operations in each class:
     E        1
     3C2      2    3    4
     8C3      5    7    8    6   12    9   10   11
     6s_d    13   14   17   18   21   22
     6S4     15   16   20   19   23   24

   Cartesian axes

     site n.     atom                  positions (alat units)
         1           Si  tau(   1) = (   0.0000000   0.0000000   0.0000000  )
         2           Si  tau(   2) = (  -0.2500000   0.2500000   0.2500000  )

   Crystallographic axes

     site n.     atom                  positions (cryst. coord.)
         1           Si  tau(   1) = (  0.0000000  0.0000000  0.0000000  )
         2           Si  tau(   2) = (  0.2500000  0.2500000  0.2500000  )

     number of k points=    16
                       cart. coord. in units 2pi/alat
        k(    1) = (   0.0000000   0.0000000   0.0000000), wk =   0.0092593
        k(    2) = (  -0.1666667   0.1666667  -0.1666667), wk =   0.0740741
        k(    3) = (  -0.3333333   0.3333333  -0.3333333), wk =   0.0740741
        k(    4) = (   0.5000000  -0.5000000   0.5000000), wk =   0.0370370
        k(    5) = (   0.0000000   0.3333333   0.0000000), wk =   0.0555556
        k(    6) = (  -0.1666667   0.5000000  -0.1666667), wk =   0.2222222
        k(    7) = (   0.6666667  -0.3333333   0.6666667), wk =   0.2222222
        k(    8) = (   0.5000000  -0.1666667   0.5000000), wk =   0.2222222
        k(    9) = (   0.3333333   0.0000000   0.3333333), wk =   0.1111111
        k(   10) = (   0.0000000   0.6666667   0.0000000), wk =   0.0555556
        k(   11) = (   0.8333333  -0.1666667   0.8333333), wk =   0.2222222
        k(   12) = (   0.6666667  -0.0000000   0.6666667), wk =   0.1111111
        k(   13) = (   0.0000000  -1.0000000   0.0000000), wk =   0.0277778
        k(   14) = (   0.6666667  -0.3333333   1.0000000), wk =   0.2222222
        k(   15) = (   0.5000000  -0.1666667   0.8333333), wk =   0.2222222
        k(   16) = (  -0.3333333  -1.0000000   0.0000000), wk =   0.1111111

                       cryst. coord.
        k(    1) = (   0.0000000   0.0000000   0.0000000), wk =   0.0092593
        k(    2) = (   0.0000000   0.0000000   0.1666667), wk =   0.0740741
        k(    3) = (   0.0000000   0.0000000   0.3333333), wk =   0.0740741
        k(    4) = (   0.0000000   0.0000000  -0.5000000), wk =   0.0370370
        k(    5) = (   0.0000000   0.1666667   0.1666667), wk =   0.0555556
        k(    6) = (   0.0000000   0.1666667   0.3333333), wk =   0.2222222
        k(    7) = (   0.0000000   0.1666667  -0.5000000), wk =   0.2222222
        k(    8) = (   0.0000000   0.1666667  -0.3333333), wk =   0.2222222
        k(    9) = (   0.0000000   0.1666667  -0.1666667), wk =   0.1111111
        k(   10) = (   0.0000000   0.3333333   0.3333333), wk =   0.0555556
        k(   11) = (   0.0000000   0.3333333  -0.5000000), wk =   0.2222222
        k(   12) = (   0.0000000   0.3333333  -0.3333333), wk =   0.1111111
        k(   13) = (   0.0000000  -0.5000000  -0.5000000), wk =   0.0277778
        k(   14) = (   0.1666667   0.3333333  -0.5000000), wk =   0.2222222
        k(   15) = (   0.1666667   0.3333333  -0.3333333), wk =   0.2222222
        k(   16) = (   0.1666667  -0.5000000  -0.3333333), wk =   0.1111111

     Dense  grid:     8801 G-vectors     FFT dimensions: (  30,  30,  30)

     Smooth grid:     4909 G-vectors     FFT dimensions: (  24,  24,  24)

     Largest allocated arrays     est. size (Mb)     dimensions
        Kohn-Sham Wavefunctions         0.01 Mb     (     85,    4)
        NL pseudopotentials             0.05 Mb     (     85,   36)
        Each V/rho on FFT grid          0.05 Mb     (   3600)
        Each G-vector array             0.01 Mb     (   1101)
        G-vector shells                 0.00 Mb     (    135)
     Largest temporary arrays     est. size (Mb)     dimensions
        Auxiliary wavefunctions         0.02 Mb     (     85,   16)
        Each subspace H/S matrix        0.00 Mb     (  16,  16)
        Each <psi_i|beta_j> matrix      0.00 Mb     (     36,    4)
        Arrays for rho mixing           0.44 Mb     (   3600,   8)

     Check: negative/imaginary core charge=   -0.000003    0.000000

     Initial potential from superposition of free atoms

     starting charge    7.99892, renormalised to    8.00000
     Starting wfc are    8 randomized atomic wfcs

     total cpu time spent up to now is        0.8 secs

     per-process dynamical memory:     8.0 Mb

     Self-consistent Calculation

     iteration #  1     ecut=    27.00 Ry     beta=0.70
     Davidson diagonalization with overlap
     ethr =  1.00E-02,  avg # of iterations =  2.0

     Threshold (ethr) on eigenvalues was too large:
     Diagonalizing with lowered threshold

     Davidson diagonalization with overlap
     ethr =  7.44E-04,  avg # of iterations =  1.4

     total cpu time spent up to now is        1.0 secs

     total energy              =     -22.66997066 Ry
     Harris-Foulkes estimate   =     -22.68994017 Ry
     estimated scf accuracy    <       0.05938432 Ry

     iteration #  2     ecut=    27.00 Ry     beta=0.70
     Davidson diagonalization with overlap
     ethr =  7.42E-04,  avg # of iterations =  1.0

     total cpu time spent up to now is        1.1 secs

     total energy              =     -22.67272480 Ry
     Harris-Foulkes estimate   =     -22.67312900 Ry
     estimated scf accuracy    <       0.00222834 Ry

     iteration #  3     ecut=    27.00 Ry     beta=0.70
     Davidson diagonalization with overlap
     ethr =  2.79E-05,  avg # of iterations =  2.8

     total cpu time spent up to now is        1.3 secs

     total energy              =     -22.67351611 Ry
     Harris-Foulkes estimate   =     -22.67360492 Ry
     estimated scf accuracy    <       0.00016262 Ry

     iteration #  4     ecut=    27.00 Ry     beta=0.70
     Davidson diagonalization with overlap
     ethr =  2.03E-06,  avg # of iterations =  2.1

     total cpu time spent up to now is        1.5 secs

     total energy              =     -22.67353932 Ry
     Harris-Foulkes estimate   =     -22.67357407 Ry
     estimated scf accuracy    <       0.00006726 Ry

     iteration #  5     ecut=    27.00 Ry     beta=0.70
     Davidson diagonalization with overlap
     ethr =  8.41E-07,  avg # of iterations =  2.0

     total cpu time spent up to now is        1.7 secs

     total energy              =     -22.67354757 Ry
     Harris-Foulkes estimate   =     -22.67354758 Ry
     estimated scf accuracy    <       0.00000008 Ry

     iteration #  6     ecut=    27.00 Ry     beta=0.70
     Davidson diagonalization with overlap
     ethr =  9.94E-10,  avg # of iterations =  4.2

     total cpu time spent up to now is        1.8 secs

     total energy              =     -22.67354780 Ry
     Harris-Foulkes estimate   =     -22.67354782 Ry
     estimated scf accuracy    <       0.00000006 Ry

     iteration #  7     ecut=    27.00 Ry     beta=0.70
     Davidson diagonalization with overlap
     ethr =  7.52E-10,  avg # of iterations =  1.0

     total cpu time spent up to now is        2.0 secs

     total energy              =     -22.67354780 Ry
     Harris-Foulkes estimate   =     -22.67354780 Ry
     estimated scf accuracy    <          4.6E-09 Ry

     iteration #  8     ecut=    27.00 Ry     beta=0.70
     Davidson diagonalization with overlap
     ethr =  5.70E-11,  avg # of iterations =  2.4

     total cpu time spent up to now is        2.1 secs

     End of self-consistent calculation

          k = 0.0000 0.0000 0.0000 (   609 PWs)   bands (ev):

    -5.6627   6.6456   6.6456   6.6456

     occupation numbers 
     1.0000   1.0000   1.0000   1.0000

          k =-0.1667 0.1667-0.1667 (   597 PWs)   bands (ev):

    -5.2860   4.2042   6.1701   6.1701

     occupation numbers 
     1.0000   1.0000   1.0000   1.0000

          k =-0.3333 0.3333-0.3333 (   613 PWs)   bands (ev):

    -4.2211   1.1361   5.6023   5.6023

     occupation numbers 
     1.0000   1.0000   1.0000   1.0000

          k = 0.5000-0.5000 0.5000 (   610 PWs)   bands (ev):

    -3.1970  -0.5930   5.4004   5.4004

     occupation numbers 
     1.0000   1.0000   1.0000   1.0000

          k = 0.0000 0.3333 0.0000 (   597 PWs)   bands (ev):

    -5.1581   4.6375   5.3778   5.3778

     occupation numbers 
     1.0000   1.0000   1.0000   1.0000

          k =-0.1667 0.5000-0.1667 (   608 PWs)   bands (ev):

    -4.3058   2.1162   4.5628   4.8035

     occupation numbers 
     1.0000   1.0000   1.0000   1.0000

          k = 0.6667-0.3333 0.6667 (   606 PWs)   bands (ev):

    -3.0411  -0.1754   3.7440   4.7802

     occupation numbers 
     1.0000   1.0000   1.0000   1.0000

          k = 0.5000-0.1667 0.5000 (   614 PWs)   bands (ev):

    -3.4535   0.4618   3.4452   5.2893

     occupation numbers 
     1.0000   1.0000   1.0000   1.0000

          k = 0.3333 0.0000 0.3333 (   616 PWs)   bands (ev):

    -4.6715   2.8695   4.0770   6.0631

     occupation numbers 
     1.0000   1.0000   1.0000   1.0000

          k = 0.0000 0.6667 0.0000 (   624 PWs)   bands (ev):

    -3.6767   1.5859   4.0994   4.0994

     occupation numbers 
     1.0000   1.0000   1.0000   1.0000

          k = 0.8333-0.1667 0.8333 (   617 PWs)   bands (ev):

    -2.4542  -0.0320   2.7866   3.9598

     occupation numbers 
     1.0000   1.0000   1.0000   1.0000

          k = 0.6667-0.0000 0.6667 (   606 PWs)   bands (ev):

    -2.2308  -0.2623   1.9498   4.4264

     occupation numbers 
     1.0000   1.0000   1.0000   1.0000

          k = 0.0000-1.0000 0.0000 (   620 PWs)   bands (ev):

    -1.3375  -1.3375   3.6476   3.6476

     occupation numbers 
     1.0000   1.0000   1.0000   1.0000

          k = 0.6667-0.3333 1.0000 (   624 PWs)   bands (ev):

    -3.2677   0.9151   2.8574   4.2106

     occupation numbers 
     1.0000   1.0000   1.0000   1.0000

          k = 0.5000-0.1667 0.8333 (   620 PWs)   bands (ev):

    -2.2182  -0.3566   2.4042   3.7072

     occupation numbers 
     1.0000   1.0000   1.0000   1.0000

          k =-0.3333-1.0000 0.0000 (   618 PWs)   bands (ev):

    -1.1977  -1.1977   2.7677   2.7678

     occupation numbers 
     1.0000   1.0000   1.0000   1.0000

!    total energy              =     -22.67354780 Ry
     Harris-Foulkes estimate   =     -22.67354780 Ry
     estimated scf accuracy    <          9.9E-11 Ry

     The total energy is the sum of the following terms:

     one-electron contribution =       5.52893786 Ry
     hartree contribution      =       1.04565003 Ry
     xc contribution           =     -12.19793412 Ry
     ewald contribution        =     -17.05020156 Ry

     convergence has been achieved in   8 iterations

     Forces acting on atoms (Ry/au):

     atom    1 type  1   force =     0.00000000    0.00000000    0.00000000
     atom    2 type  1   force =     0.00000000    0.00000000    0.00000000
     The non-local contrib.  to forces
     atom    1 type  1   force =     0.00000000    0.00000000    0.00000000
     atom    2 type  1   force =     0.00000000    0.00000000    0.00000000
     The ionic contribution  to forces
     atom    1 type  1   force =    -0.00000000    0.00000000    0.00000000
     atom    2 type  1   force =     0.00000000   -0.00000000   -0.00000000
     The local contribution  to forces
     atom    1 type  1   force =    -0.00000000   -0.00000000   -0.00000000
     atom    2 type  1   force =     0.00000000    0.00000000    0.00000000
     The core correction contribution to forces
     atom    1 type  1   force =    -0.00000000    0.00000000   -0.00000000
     atom    2 type  1   force =     0.00000000    0.00000000    0.00000000
     The Hubbard contrib.    to forces
     atom    1 type  1   force =     0.00000000    0.00000000    0.00000000
     atom    2 type  1   force =     0.00000000    0.00000000    0.00000000
     The SCF correction term to forces
     atom    1 type  1   force =    -0.00000000   -0.00000000    0.00000000
     atom    2 type  1   force =    -0.00000000    0.00000000    0.00000000

     Total force =     0.000000     Total SCF correction =     0.000000


     entering subroutine stress ...

          total   stress  (Ry/bohr**3)                   (kbar)     P=   48.16
   0.00032736   0.00000000   0.00000000         48.16      0.00      0.00
   0.00000000   0.00032736  -0.00000000          0.00     48.16     -0.00
   0.00000000  -0.00000000   0.00032736          0.00     -0.00     48.16

     kinetic stress (kbar)   2354.22      0.00     -0.00
                                0.00   2354.22      0.00
                               -0.00      0.00   2354.22

     local   stress (kbar)     92.90     -0.00     -0.00
                               -0.00     92.90      0.00
                               -0.00      0.00     92.90

     nonloc. stress (kbar)   1719.15     -0.00     -0.00
                                0.00   1719.15      0.00
                               -0.00      0.00   1719.15

     hartree stress (kbar)    198.47     -0.00      0.00
                               -0.00    198.47      0.00
                                0.00      0.00    198.47

     exc-cor stress (kbar)   3035.94     -0.00      0.00
                               -0.00   3035.94     -0.00
                                0.00     -0.00   3035.94

     corecor stress (kbar)  -4116.28      0.00      0.00
                                0.00  -4116.28      0.00
                                0.00      0.00  -4116.28

     ewald   stress (kbar)  -3236.25      0.00     -0.00
                                0.00  -3236.25     -0.00
                               -0.00     -0.00  -3236.25

     hubbard stress (kbar)      0.00      0.00      0.00
                                0.00      0.00      0.00
                                0.00      0.00      0.00

     london  stress (kbar)      0.00      0.00      0.00
                                0.00      0.00      0.00
                                0.00      0.00      0.00

     dft-nl  stress (kbar)      0.00      0.00      0.00
                                0.00      0.00      0.00
                                0.00      0.00      0.00



     Writing output data file si.save
 
     init_run     :      0.20s CPU      0.23s WALL (       1 calls)
     electrons    :      1.18s CPU      1.33s WALL (       1 calls)
     forces       :      0.05s CPU      0.06s WALL (       1 calls)
     stress       :      0.12s CPU      0.14s WALL (       1 calls)

     Called by init_run:
     wfcinit      :      0.03s CPU      0.03s WALL (       1 calls)
     potinit      :      0.02s CPU      0.02s WALL (       1 calls)

     Called by electrons:
     c_bands      :      0.75s CPU      0.85s WALL (       9 calls)
     sum_band     :      0.18s CPU      0.20s WALL (       9 calls)
     v_of_rho     :      0.05s CPU      0.05s WALL (       9 calls)
     v_h          :      0.00s CPU      0.00s WALL (       9 calls)
     v_xc         :      0.06s CPU      0.06s WALL (      11 calls)
     newd         :      0.16s CPU      0.18s WALL (       9 calls)
     mix_rho      :      0.00s CPU      0.00s WALL (       9 calls)

     Called by c_bands:
     init_us_2    :      0.02s CPU      0.02s WALL (     336 calls)
     cegterg      :      0.67s CPU      0.76s WALL (     144 calls)

     Called by sum_band:
     sum_band:bec :      0.00s CPU      0.00s WALL (     144 calls)
     addusdens    :      0.08s CPU      0.09s WALL (       9 calls)

     Called by *egterg:
     h_psi        :      0.39s CPU      0.44s WALL (     461 calls)
     s_psi        :      0.01s CPU      0.01s WALL (     461 calls)
     g_psi        :      0.00s CPU      0.00s WALL (     301 calls)
     cdiaghg      :      0.19s CPU      0.22s WALL (     429 calls)
     cegterg:over :      0.04s CPU      0.04s WALL (     301 calls)
     cegterg:upda :      0.00s CPU      0.00s WALL (     301 calls)
     cegterg:last :      0.00s CPU      0.00s WALL (     158 calls)

     Called by h_psi:
     h_psi:vloc   :      0.35s CPU      0.40s WALL (     461 calls)
     h_psi:vnl    :      0.04s CPU      0.04s WALL (     461 calls)
     add_vuspsi   :      0.01s CPU      0.01s WALL (     461 calls)

     General routines
     calbec       :      0.05s CPU      0.06s WALL (     637 calls)
     fft          :      0.08s CPU      0.08s WALL (     169 calls)
     ffts         :      0.01s CPU      0.01s WALL (      18 calls)
     fftw         :      0.38s CPU      0.43s WALL (    4074 calls)
     interpolate  :      0.02s CPU      0.02s WALL (      18 calls)
     davcio       :      0.00s CPU      0.01s WALL (     480 calls)
 
     Parallel routines
     fft_scatter  :      0.29s CPU      0.33s WALL (    4261 calls)
 
     PWSCF        :     2.05s CPU         2.48s WALL

 
   This run was terminated on:  17:18:15   6Oct2016            

=------------------------------------------------------------------------------=
   JOB DONE.
=------------------------------------------------------------------------------=
