
     Program PWSCF v.5.0.2 (svn rev. 9392) starts on  6Oct2016 at 17:19:29 

     This program is part of the open-source Quantum ESPRESSO suite
     for quantum simulation of materials; please cite
         "P. Giannozzi et al., J. Phys.:Condens. Matter 21 395502 (2009);
          URL http://www.quantum-espresso.org", 
     in publications or presentations arising from this work. More details at
     http://www.quantum-espresso.org/quote.php

     Parallel version (MPI), running on     8 processors
     R & G space division:  proc/nbgrp/npool/nimage =       8

     Current dimensions of program PWSCF are:
     Max number of different atomic species (ntypx) = 10
     Max number of k-points (npk) =  40000
     Max angular momentum in pseudopotentials (lmaxx) =  3
     Waiting for input...
     Reading input from standard input

     Subspace diagonalization in iterative solution of the eigenvalue problem:
     a serial algorithm will be used

 
     Parallelization info
     --------------------
     sticks:   dense  smooth     PW     G-vecs:    dense   smooth      PW
     Min          74      52     15                 1229      684     120
     Max          75      53     16                 1233      695     123
     Sum         595     421    127                 9841     5521     965
 


     bravais-lattice index     =            2
     lattice parameter (alat)  =      10.4600  a.u.
     unit-cell volume          =     286.1113 (a.u.)^3
     number of atoms/cell      =            2
     number of atomic types    =            1
     number of electrons       =         8.00
     number of Kohn-Sham states=            4
     kinetic-energy cutoff     =      27.0000  Ry
     charge density cutoff     =     160.0000  Ry
     convergence threshold     =      1.0E-09
     mixing beta               =       0.7000
     number of iterations used =            8  plain     mixing
     Exchange-correlation      = PBESOL ( 1 410 8 0)
     EXX-fraction              =        0.00

     celldm(1)=  10.460000  celldm(2)=   0.000000  celldm(3)=   0.000000
     celldm(4)=   0.000000  celldm(5)=   0.000000  celldm(6)=   0.000000

     crystal axes: (cart. coord. in units of alat)
               a(1) = (  -0.500000   0.000000   0.500000 )  
               a(2) = (   0.000000   0.500000   0.500000 )  
               a(3) = (  -0.500000   0.500000   0.000000 )  

     reciprocal axes: (cart. coord. in units 2 pi/alat)
               b(1) = ( -1.000000 -1.000000  1.000000 )  
               b(2) = (  1.000000  1.000000  1.000000 )  
               b(3) = ( -1.000000  1.000000 -1.000000 )  


     PseudoPot. # 1 for Si read from file:
     ./Si.pbesol-n-rrkjus_psl.1.0.0.UPF
     MD5 check sum: 8befc6ca08d45158dbd3e93582c1ea6d
     Pseudo is Ultrasoft + core correction, Zval =  4.0
     Generated using "atomic" code by A. Dal Corso  v.5.1
     Using radial grid of 1141 points,  6 beta functions with: 
                l(1) =   0
                l(2) =   0
                l(3) =   1
                l(4) =   1
                l(5) =   2
                l(6) =   2
     Q(r) pseudized with 0 coefficients 


     atomic species   valence    mass     pseudopotential
        Si             4.00    28.08600     Si( 1.00)

     24 Sym. Ops. (no inversion) found
          (note: 24 additional sym.ops. were found but ignored
           their fractional translations are incommensurate with FFT grid)

                                    s                        frac. trans.

      isym =  1     identity                                     

 cryst.   s( 1) = (     1          0          0      )
                  (     0          1          0      )
                  (     0          0          1      )

 cart.    s( 1) = (  1.0000000  0.0000000  0.0000000 )
                  (  0.0000000  1.0000000  0.0000000 )
                  (  0.0000000  0.0000000  1.0000000 )


      isym =  2     180 deg rotation - cart. axis [0,0,1]        

 cryst.   s( 2) = (     0          1         -1      )
                  (     1          0         -1      )
                  (     0          0         -1      )

 cart.    s( 2) = ( -1.0000000  0.0000000  0.0000000 )
                  (  0.0000000 -1.0000000  0.0000000 )
                  (  0.0000000  0.0000000  1.0000000 )


      isym =  3     180 deg rotation - cart. axis [0,1,0]        

 cryst.   s( 3) = (    -1          0          0      )
                  (    -1          0          1      )
                  (    -1          1          0      )

 cart.    s( 3) = ( -1.0000000  0.0000000  0.0000000 )
                  (  0.0000000  1.0000000  0.0000000 )
                  (  0.0000000  0.0000000 -1.0000000 )


      isym =  4     180 deg rotation - cart. axis [1,0,0]        

 cryst.   s( 4) = (     0         -1          1      )
                  (     0         -1          0      )
                  (     1         -1          0      )

 cart.    s( 4) = (  1.0000000  0.0000000  0.0000000 )
                  (  0.0000000 -1.0000000  0.0000000 )
                  (  0.0000000  0.0000000 -1.0000000 )


      isym =  5     120 deg rotation - cart. axis [-1,-1,-1]     

 cryst.   s( 5) = (    -1          0          1      )
                  (    -1          1          0      )
                  (    -1          0          0      )

 cart.    s( 5) = (  0.0000000  1.0000000  0.0000000 )
                  (  0.0000000  0.0000000  1.0000000 )
                  (  1.0000000  0.0000000  0.0000000 )


      isym =  6     120 deg rotation - cart. axis [-1,1,1]       

 cryst.   s( 6) = (     0          1          0      )
                  (     0          0          1      )
                  (     1          0          0      )

 cart.    s( 6) = (  0.0000000 -1.0000000  0.0000000 )
                  (  0.0000000  0.0000000  1.0000000 )
                  ( -1.0000000  0.0000000  0.0000000 )


      isym =  7     120 deg rotation - cart. axis [1,1,-1]       

 cryst.   s( 7) = (     1          0         -1      )
                  (     0          0         -1      )
                  (     0          1         -1      )

 cart.    s( 7) = (  0.0000000  1.0000000  0.0000000 )
                  (  0.0000000  0.0000000 -1.0000000 )
                  ( -1.0000000  0.0000000  0.0000000 )


      isym =  8     120 deg rotation - cart. axis [1,-1,1]       

 cryst.   s( 8) = (     0         -1          0      )
                  (     1         -1          0      )
                  (     0         -1          1      )

 cart.    s( 8) = (  0.0000000 -1.0000000  0.0000000 )
                  (  0.0000000  0.0000000 -1.0000000 )
                  (  1.0000000  0.0000000  0.0000000 )


      isym =  9     120 deg rotation - cart. axis [1,1,1]        

 cryst.   s( 9) = (     0          0         -1      )
                  (     0          1         -1      )
                  (     1          0         -1      )

 cart.    s( 9) = (  0.0000000  0.0000000  1.0000000 )
                  (  1.0000000  0.0000000  0.0000000 )
                  (  0.0000000  1.0000000  0.0000000 )


      isym = 10     120 deg rotation - cart. axis [-1,1,-1]      

 cryst.   s(10) = (    -1          1          0      )
                  (    -1          0          0      )
                  (    -1          0          1      )

 cart.    s(10) = (  0.0000000  0.0000000  1.0000000 )
                  ( -1.0000000  0.0000000  0.0000000 )
                  (  0.0000000 -1.0000000  0.0000000 )


      isym = 11     120 deg rotation - cart. axis [1,-1,-1]      

 cryst.   s(11) = (     0          0          1      )
                  (     1          0          0      )
                  (     0          1          0      )

 cart.    s(11) = (  0.0000000  0.0000000 -1.0000000 )
                  ( -1.0000000  0.0000000  0.0000000 )
                  (  0.0000000  1.0000000  0.0000000 )


      isym = 12     120 deg rotation - cart. axis [-1,-1,1]      

 cryst.   s(12) = (     1         -1          0      )
                  (     0         -1          1      )
                  (     0         -1          0      )

 cart.    s(12) = (  0.0000000  0.0000000 -1.0000000 )
                  (  1.0000000  0.0000000  0.0000000 )
                  (  0.0000000 -1.0000000  0.0000000 )


      isym = 13     inv. 180 deg rotation - cart. axis [1,1,0]   

 cryst.   s(13) = (     0          1          0      )
                  (     1          0          0      )
                  (     0          0          1      )

 cart.    s(13) = (  0.0000000 -1.0000000  0.0000000 )
                  ( -1.0000000  0.0000000  0.0000000 )
                  (  0.0000000  0.0000000  1.0000000 )


      isym = 14     inv. 180 deg rotation - cart. axis [1,-1,0]  

 cryst.   s(14) = (     1          0         -1      )
                  (     0          1         -1      )
                  (     0          0         -1      )

 cart.    s(14) = (  0.0000000  1.0000000  0.0000000 )
                  (  1.0000000  0.0000000  0.0000000 )
                  (  0.0000000  0.0000000  1.0000000 )


      isym = 15     inv.  90 deg rotation - cart. axis [0,0,-1]  

 cryst.   s(15) = (     0         -1          0      )
                  (     0         -1          1      )
                  (     1         -1          0      )

 cart.    s(15) = (  0.0000000 -1.0000000  0.0000000 )
                  (  1.0000000  0.0000000  0.0000000 )
                  (  0.0000000  0.0000000 -1.0000000 )


      isym = 16     inv.  90 deg rotation - cart. axis [0,0,1]   

 cryst.   s(16) = (    -1          0          1      )
                  (    -1          0          0      )
                  (    -1          1          0      )

 cart.    s(16) = (  0.0000000  1.0000000  0.0000000 )
                  ( -1.0000000  0.0000000  0.0000000 )
                  (  0.0000000  0.0000000 -1.0000000 )


      isym = 17     inv. 180 deg rotation - cart. axis [1,0,1]   

 cryst.   s(17) = (     1          0          0      )
                  (     0          0          1      )
                  (     0          1          0      )

 cart.    s(17) = (  0.0000000  0.0000000 -1.0000000 )
                  (  0.0000000  1.0000000  0.0000000 )
                  ( -1.0000000  0.0000000  0.0000000 )


      isym = 18     inv. 180 deg rotation - cart. axis [-1,0,1]  

 cryst.   s(18) = (    -1          0          0      )
                  (    -1          1          0      )
                  (    -1          0          1      )

 cart.    s(18) = (  0.0000000  0.0000000  1.0000000 )
                  (  0.0000000  1.0000000  0.0000000 )
                  (  1.0000000  0.0000000  0.0000000 )


      isym = 19     inv.  90 deg rotation - cart. axis [0,1,0]   

 cryst.   s(19) = (     0         -1          1      )
                  (     1         -1          0      )
                  (     0         -1          0      )

 cart.    s(19) = (  0.0000000  0.0000000 -1.0000000 )
                  (  0.0000000 -1.0000000  0.0000000 )
                  (  1.0000000  0.0000000  0.0000000 )


      isym = 20     inv.  90 deg rotation - cart. axis [0,-1,0]  

 cryst.   s(20) = (     0          1         -1      )
                  (     0          0         -1      )
                  (     1          0         -1      )

 cart.    s(20) = (  0.0000000  0.0000000  1.0000000 )
                  (  0.0000000 -1.0000000  0.0000000 )
                  ( -1.0000000  0.0000000  0.0000000 )


      isym = 21     inv. 180 deg rotation - cart. axis [0,1,1]   

 cryst.   s(21) = (     1         -1          0      )
                  (     0         -1          0      )
                  (     0         -1          1      )

 cart.    s(21) = (  1.0000000  0.0000000  0.0000000 )
                  (  0.0000000  0.0000000 -1.0000000 )
                  (  0.0000000 -1.0000000  0.0000000 )


      isym = 22     inv. 180 deg rotation - cart. axis [0,1,-1]  

 cryst.   s(22) = (     0          0          1      )
                  (     0          1          0      )
                  (     1          0          0      )

 cart.    s(22) = (  1.0000000  0.0000000  0.0000000 )
                  (  0.0000000  0.0000000  1.0000000 )
                  (  0.0000000  1.0000000  0.0000000 )


      isym = 23     inv.  90 deg rotation - cart. axis [-1,0,0]  

 cryst.   s(23) = (     0          0         -1      )
                  (     1          0         -1      )
                  (     0          1         -1      )

 cart.    s(23) = ( -1.0000000  0.0000000  0.0000000 )
                  (  0.0000000  0.0000000 -1.0000000 )
                  (  0.0000000  1.0000000  0.0000000 )


      isym = 24     inv.  90 deg rotation - cart. axis [1,0,0]   

 cryst.   s(24) = (    -1          1          0      )
                  (    -1          0          1      )
                  (    -1          0          0      )

 cart.    s(24) = ( -1.0000000  0.0000000  0.0000000 )
                  (  0.0000000  0.0000000  1.0000000 )
                  (  0.0000000 -1.0000000  0.0000000 )


     point group T_d (-43m) 
     there are  5 classes
     the character table:

       E     8C3   3C2   6S4   6s_d 
A_1    1.00  1.00  1.00  1.00  1.00
A_2    1.00  1.00  1.00 -1.00 -1.00
E      2.00 -1.00  2.00  0.00  0.00
T_1    3.00  0.00 -1.00  1.00 -1.00
T_2    3.00  0.00 -1.00 -1.00  1.00

     the symmetry operations in each class:
     E        1
     3C2      2    3    4
     8C3      5    7    8    6   12    9   10   11
     6s_d    13   14   17   18   21   22
     6S4     15   16   20   19   23   24

   Cartesian axes

     site n.     atom                  positions (alat units)
         1           Si  tau(   1) = (   0.0000000   0.0000000   0.0000000  )
         2           Si  tau(   2) = (  -0.2500000   0.2500000   0.2500000  )

   Crystallographic axes

     site n.     atom                  positions (cryst. coord.)
         1           Si  tau(   1) = (  0.0000000  0.0000000  0.0000000  )
         2           Si  tau(   2) = (  0.2500000  0.2500000  0.2500000  )

     number of k points=    16
                       cart. coord. in units 2pi/alat
        k(    1) = (   0.0000000   0.0000000   0.0000000), wk =   0.0092593
        k(    2) = (  -0.1666667   0.1666667  -0.1666667), wk =   0.0740741
        k(    3) = (  -0.3333333   0.3333333  -0.3333333), wk =   0.0740741
        k(    4) = (   0.5000000  -0.5000000   0.5000000), wk =   0.0370370
        k(    5) = (   0.0000000   0.3333333   0.0000000), wk =   0.0555556
        k(    6) = (  -0.1666667   0.5000000  -0.1666667), wk =   0.2222222
        k(    7) = (   0.6666667  -0.3333333   0.6666667), wk =   0.2222222
        k(    8) = (   0.5000000  -0.1666667   0.5000000), wk =   0.2222222
        k(    9) = (   0.3333333   0.0000000   0.3333333), wk =   0.1111111
        k(   10) = (   0.0000000   0.6666667   0.0000000), wk =   0.0555556
        k(   11) = (   0.8333333  -0.1666667   0.8333333), wk =   0.2222222
        k(   12) = (   0.6666667  -0.0000000   0.6666667), wk =   0.1111111
        k(   13) = (   0.0000000  -1.0000000   0.0000000), wk =   0.0277778
        k(   14) = (   0.6666667  -0.3333333   1.0000000), wk =   0.2222222
        k(   15) = (   0.5000000  -0.1666667   0.8333333), wk =   0.2222222
        k(   16) = (  -0.3333333  -1.0000000   0.0000000), wk =   0.1111111

                       cryst. coord.
        k(    1) = (   0.0000000   0.0000000   0.0000000), wk =   0.0092593
        k(    2) = (   0.0000000   0.0000000   0.1666667), wk =   0.0740741
        k(    3) = (   0.0000000   0.0000000   0.3333333), wk =   0.0740741
        k(    4) = (   0.0000000   0.0000000  -0.5000000), wk =   0.0370370
        k(    5) = (   0.0000000   0.1666667   0.1666667), wk =   0.0555556
        k(    6) = (   0.0000000   0.1666667   0.3333333), wk =   0.2222222
        k(    7) = (   0.0000000   0.1666667  -0.5000000), wk =   0.2222222
        k(    8) = (   0.0000000   0.1666667  -0.3333333), wk =   0.2222222
        k(    9) = (   0.0000000   0.1666667  -0.1666667), wk =   0.1111111
        k(   10) = (   0.0000000   0.3333333   0.3333333), wk =   0.0555556
        k(   11) = (   0.0000000   0.3333333  -0.5000000), wk =   0.2222222
        k(   12) = (   0.0000000   0.3333333  -0.3333333), wk =   0.1111111
        k(   13) = (   0.0000000  -0.5000000  -0.5000000), wk =   0.0277778
        k(   14) = (   0.1666667   0.3333333  -0.5000000), wk =   0.2222222
        k(   15) = (   0.1666667   0.3333333  -0.3333333), wk =   0.2222222
        k(   16) = (   0.1666667  -0.5000000  -0.3333333), wk =   0.1111111

     Dense  grid:     9841 G-vectors     FFT dimensions: (  30,  30,  30)

     Smooth grid:     5521 G-vectors     FFT dimensions: (  25,  25,  25)

     Largest allocated arrays     est. size (Mb)     dimensions
        Kohn-Sham Wavefunctions         0.01 Mb     (     94,    4)
        NL pseudopotentials             0.05 Mb     (     94,   36)
        Each V/rho on FFT grid          0.05 Mb     (   3600)
        Each G-vector array             0.01 Mb     (   1233)
        G-vector shells                 0.00 Mb     (    148)
     Largest temporary arrays     est. size (Mb)     dimensions
        Auxiliary wavefunctions         0.02 Mb     (     94,   16)
        Each subspace H/S matrix        0.00 Mb     (  16,  16)
        Each <psi_i|beta_j> matrix      0.00 Mb     (     36,    4)
        Arrays for rho mixing           0.44 Mb     (   3600,   8)

     Check: negative/imaginary core charge=   -0.000003    0.000000

     Initial potential from superposition of free atoms

     starting charge    7.99892, renormalised to    8.00000
     Starting wfc are    8 randomized atomic wfcs

     total cpu time spent up to now is        0.6 secs

     per-process dynamical memory:     7.8 Mb

     Self-consistent Calculation

     iteration #  1     ecut=    27.00 Ry     beta=0.70
     Davidson diagonalization with overlap
     ethr =  1.00E-02,  avg # of iterations =  2.0

     Threshold (ethr) on eigenvalues was too large:
     Diagonalizing with lowered threshold

     Davidson diagonalization with overlap
     ethr =  6.19E-04,  avg # of iterations =  1.6

     total cpu time spent up to now is        0.7 secs

     total energy              =     -22.67068864 Ry
     Harris-Foulkes estimate   =     -22.68563431 Ry
     estimated scf accuracy    <       0.04971362 Ry

     iteration #  2     ecut=    27.00 Ry     beta=0.70
     Davidson diagonalization with overlap
     ethr =  6.21E-04,  avg # of iterations =  1.0

     total cpu time spent up to now is        0.8 secs

     total energy              =     -22.67246300 Ry
     Harris-Foulkes estimate   =     -22.67287675 Ry
     estimated scf accuracy    <       0.00224893 Ry

     iteration #  3     ecut=    27.00 Ry     beta=0.70
     Davidson diagonalization with overlap
     ethr =  2.81E-05,  avg # of iterations =  2.6

     total cpu time spent up to now is        0.9 secs

     total energy              =     -22.67306493 Ry
     Harris-Foulkes estimate   =     -22.67313427 Ry
     estimated scf accuracy    <       0.00012940 Ry

     iteration #  4     ecut=    27.00 Ry     beta=0.70
     Davidson diagonalization with overlap
     ethr =  1.62E-06,  avg # of iterations =  2.2

     total cpu time spent up to now is        1.0 secs

     total energy              =     -22.67308272 Ry
     Harris-Foulkes estimate   =     -22.67311539 Ry
     estimated scf accuracy    <       0.00006378 Ry

     iteration #  5     ecut=    27.00 Ry     beta=0.70
     Davidson diagonalization with overlap
     ethr =  7.97E-07,  avg # of iterations =  2.0

     total cpu time spent up to now is        1.1 secs

     total energy              =     -22.67309063 Ry
     Harris-Foulkes estimate   =     -22.67309063 Ry
     estimated scf accuracy    <       0.00000005 Ry

     iteration #  6     ecut=    27.00 Ry     beta=0.70
     Davidson diagonalization with overlap
     ethr =  6.34E-10,  avg # of iterations =  4.3

     total cpu time spent up to now is        1.2 secs

     total energy              =     -22.67309091 Ry
     Harris-Foulkes estimate   =     -22.67309092 Ry
     estimated scf accuracy    <       0.00000005 Ry

     iteration #  7     ecut=    27.00 Ry     beta=0.70
     Davidson diagonalization with overlap
     ethr =  6.34E-10,  avg # of iterations =  1.0

     total cpu time spent up to now is        1.3 secs

     total energy              =     -22.67309091 Ry
     Harris-Foulkes estimate   =     -22.67309091 Ry
     estimated scf accuracy    <          3.9E-09 Ry

     iteration #  8     ecut=    27.00 Ry     beta=0.70
     Davidson diagonalization with overlap
     ethr =  4.92E-11,  avg # of iterations =  2.4

     total cpu time spent up to now is        1.4 secs

     End of self-consistent calculation

          k = 0.0000 0.0000 0.0000 (   645 PWs)   bands (ev):

    -6.0242   5.5826   5.5826   5.5826

     occupation numbers 
     1.0000   1.0000   1.0000   1.0000

          k =-0.1667 0.1667-0.1667 (   673 PWs)   bands (ev):

    -5.6795   3.2196   5.1508   5.1508

     occupation numbers 
     1.0000   1.0000   1.0000   1.0000

          k =-0.3333 0.3333-0.3333 (   664 PWs)   bands (ev):

    -4.7130   0.3774   4.6198   4.6198

     occupation numbers 
     1.0000   1.0000   1.0000   1.0000

          k = 0.5000-0.5000 0.5000 (   700 PWs)   bands (ev):

    -3.8169  -1.1750   4.4272   4.4272

     occupation numbers 
     1.0000   1.0000   1.0000   1.0000

          k = 0.0000 0.3333 0.0000 (   681 PWs)   bands (ev):

    -5.5619   3.4857   4.4454   4.4454

     occupation numbers 
     1.0000   1.0000   1.0000   1.0000

          k =-0.1667 0.5000-0.1667 (   675 PWs)   bands (ev):

    -4.7847   1.2060   3.6447   3.9136

     occupation numbers 
     1.0000   1.0000   1.0000   1.0000

          k = 0.6667-0.3333 0.6667 (   678 PWs)   bands (ev):

    -3.6594  -0.8509   2.8870   3.8809

     occupation numbers 
     1.0000   1.0000   1.0000   1.0000

          k = 0.5000-0.1667 0.5000 (   677 PWs)   bands (ev):

    -4.0210  -0.2849   2.6389   4.3364

     occupation numbers 
     1.0000   1.0000   1.0000   1.0000

          k = 0.3333 0.0000 0.3333 (   662 PWs)   bands (ev):

    -5.1184   1.8942   3.2733   5.0354

     occupation numbers 
     1.0000   1.0000   1.0000   1.0000

          k = 0.0000 0.6667 0.0000 (   680 PWs)   bands (ev):

    -4.2063   0.6101   3.2711   3.2711

     occupation numbers 
     1.0000   1.0000   1.0000   1.0000

          k = 0.8333-0.1667 0.8333 (   686 PWs)   bands (ev):

    -3.1001  -0.8748   2.1133   3.1391

     occupation numbers 
     1.0000   1.0000   1.0000   1.0000

          k = 0.6667-0.0000 0.6667 (   680 PWs)   bands (ev):

    -2.9231  -1.0603   1.3707   3.5610

     occupation numbers 
     1.0000   1.0000   1.0000   1.0000

          k = 0.0000-1.0000 0.0000 (   692 PWs)   bands (ev):

    -2.0698  -2.0697   2.8537   2.8537

     occupation numbers 
     1.0000   1.0000   1.0000   1.0000

          k = 0.6667-0.3333 1.0000 (   670 PWs)   bands (ev):

    -3.8427   0.0146   2.1674   3.3890

     occupation numbers 
     1.0000   1.0000   1.0000   1.0000

          k = 0.5000-0.1667 0.8333 (   682 PWs)   bands (ev):

    -2.9147  -1.1203   1.7387   2.9482

     occupation numbers 
     1.0000   1.0000   1.0000   1.0000

          k =-0.3333-1.0000 0.0000 (   690 PWs)   bands (ev):

    -1.9633  -1.9632   2.1051   2.1052

     occupation numbers 
     1.0000   1.0000   1.0000   1.0000

!    total energy              =     -22.67309091 Ry
     Harris-Foulkes estimate   =     -22.67309091 Ry
     estimated scf accuracy    <          5.4E-11 Ry

     The total energy is the sum of the following terms:

     one-electron contribution =       4.74214151 Ry
     hartree contribution      =       1.13416955 Ry
     xc contribution           =     -12.06971385 Ry
     ewald contribution        =     -16.47968812 Ry

     convergence has been achieved in   8 iterations

     Forces acting on atoms (Ry/au):

     atom    1 type  1   force =     0.00000000    0.00000000    0.00000000
     atom    2 type  1   force =     0.00000000    0.00000000    0.00000000
     The non-local contrib.  to forces
     atom    1 type  1   force =     0.00000000    0.00000000    0.00000000
     atom    2 type  1   force =     0.00000000    0.00000000    0.00000000
     The ionic contribution  to forces
     atom    1 type  1   force =     0.00000000    0.00000000    0.00000000
     atom    2 type  1   force =    -0.00000000   -0.00000000   -0.00000000
     The local contribution  to forces
     atom    1 type  1   force =    -0.00000000    0.00000000    0.00000000
     atom    2 type  1   force =     0.00000000   -0.00000000   -0.00000000
     The core correction contribution to forces
     atom    1 type  1   force =     0.00000000   -0.00000000    0.00000000
     atom    2 type  1   force =    -0.00000000    0.00000000    0.00000000
     The Hubbard contrib.    to forces
     atom    1 type  1   force =     0.00000000    0.00000000    0.00000000
     atom    2 type  1   force =     0.00000000    0.00000000    0.00000000
     The SCF correction term to forces
     atom    1 type  1   force =     0.00000000   -0.00000000    0.00000000
     atom    2 type  1   force =     0.00000000   -0.00000000   -0.00000000

     Total force =     0.000000     Total SCF correction =     0.000000


     entering subroutine stress ...

          total   stress  (Ry/bohr**3)                   (kbar)     P=  -46.66
  -0.00031718  -0.00000000  -0.00000000        -46.66     -0.00     -0.00
  -0.00000000  -0.00031718   0.00000000         -0.00    -46.66      0.00
  -0.00000000   0.00000000  -0.00031718         -0.00      0.00    -46.66

     kinetic stress (kbar)   2037.06      0.00     -0.00
                                0.00   2037.06     -0.00
                               -0.00     -0.00   2037.06

     local   stress (kbar)    -19.34     -0.00      0.00
                               -0.00    -19.34     -0.00
                                0.00     -0.00    -19.34

     nonloc. stress (kbar)   1518.14     -0.00     -0.00
                               -0.00   1518.14      0.00
                               -0.00      0.00   1518.14

     hartree stress (kbar)    194.38      0.00      0.00
                                0.00    194.38     -0.00
                                0.00     -0.00    194.38

     exc-cor stress (kbar)   2755.98      0.00     -0.00
                                0.00   2755.98      0.00
                               -0.00      0.00   2755.98

     corecor stress (kbar)  -3708.51      0.00      0.00
                                0.00  -3708.51     -0.00
                                0.00     -0.00  -3708.51

     ewald   stress (kbar)  -2824.36     -0.00      0.00
                               -0.00  -2824.36      0.00
                                0.00      0.00  -2824.36

     hubbard stress (kbar)      0.00      0.00      0.00
                                0.00      0.00      0.00
                                0.00      0.00      0.00

     london  stress (kbar)      0.00      0.00      0.00
                                0.00      0.00      0.00
                                0.00      0.00      0.00

     dft-nl  stress (kbar)      0.00      0.00      0.00
                                0.00      0.00      0.00
                                0.00      0.00      0.00



     Writing output data file si.save
 
     init_run     :      0.17s CPU      0.19s WALL (       1 calls)
     electrons    :      0.77s CPU      0.87s WALL (       1 calls)
     forces       :      0.03s CPU      0.04s WALL (       1 calls)
     stress       :      0.09s CPU      0.10s WALL (       1 calls)

     Called by init_run:
     wfcinit      :      0.03s CPU      0.03s WALL (       1 calls)
     potinit      :      0.01s CPU      0.01s WALL (       1 calls)

     Called by electrons:
     c_bands      :      0.43s CPU      0.47s WALL (       9 calls)
     sum_band     :      0.15s CPU      0.19s WALL (       9 calls)
     v_of_rho     :      0.03s CPU      0.03s WALL (       9 calls)
     v_h          :      0.00s CPU      0.00s WALL (       9 calls)
     v_xc         :      0.04s CPU      0.04s WALL (      11 calls)
     newd         :      0.14s CPU      0.15s WALL (       9 calls)
     mix_rho      :      0.00s CPU      0.00s WALL (       9 calls)

     Called by c_bands:
     init_us_2    :      0.02s CPU      0.02s WALL (     336 calls)
     cegterg      :      0.34s CPU      0.37s WALL (     144 calls)

     Called by sum_band:
     sum_band:bec :      0.00s CPU      0.00s WALL (     144 calls)
     addusdens    :      0.08s CPU      0.12s WALL (       9 calls)

     Called by *egterg:
     h_psi        :      0.27s CPU      0.30s WALL (     465 calls)
     s_psi        :      0.01s CPU      0.01s WALL (     465 calls)
     g_psi        :      0.00s CPU      0.00s WALL (     305 calls)
     cdiaghg      :      0.05s CPU      0.05s WALL (     433 calls)
     cegterg:over :      0.01s CPU      0.01s WALL (     305 calls)
     cegterg:upda :      0.00s CPU      0.00s WALL (     305 calls)
     cegterg:last :      0.00s CPU      0.00s WALL (     160 calls)

     Called by h_psi:
     h_psi:vloc   :      0.23s CPU      0.25s WALL (     465 calls)
     h_psi:vnl    :      0.03s CPU      0.04s WALL (     465 calls)
     add_vuspsi   :      0.01s CPU      0.01s WALL (     465 calls)

     General routines
     calbec       :      0.03s CPU      0.04s WALL (     641 calls)
     fft          :      0.03s CPU      0.03s WALL (     169 calls)
     ffts         :      0.00s CPU      0.00s WALL (      18 calls)
     fftw         :      0.25s CPU      0.27s WALL (    4056 calls)
     interpolate  :      0.00s CPU      0.01s WALL (      18 calls)
     davcio       :      0.00s CPU      0.01s WALL (     480 calls)
 
     Parallel routines
     fft_scatter  :      0.09s CPU      0.11s WALL (    4243 calls)
 
     PWSCF        :     1.52s CPU         1.71s WALL

 
   This run was terminated on:  17:19:31   6Oct2016            

=------------------------------------------------------------------------------=
   JOB DONE.
=------------------------------------------------------------------------------=
