<UPF version="2.0.1">
  <PP_INFO>
    Generated using "atomic" code by A. Dal Corso  v.5.0.2 svn rev. 10057M
    Author: ADC
    Generation date:  4Apr2013
    Pseudopotential type: USPP
    Element: Fe
    Functional: PBE

    Suggested minimum cutoff for wavefunctions:  37. Ry
    Suggested minimum cutoff for charge density: 235. Ry
    The Pseudo was generated with a Scalar-Relativistic Calculation
    Local Potential by smoothing AE potential with Bessel fncs, cutoff radius:   2.1000

    Valence configuration: 
    nl pn  l   occ       Rcut    Rcut US       E pseu
    4S  1  0  1.70      1.700      2.200    -0.364085
    4P  2  1  0.00      1.900      2.200    -0.086201
    3D  3  2  6.30      1.500      1.800    -0.459350
    Generation configuration:
    4S  1  0  1.70      1.700      2.200    -0.364084
    4S  1  0  0.00      1.500      2.200     2.300000
    4P  2  1  0.00      1.900      2.200    -0.086201
    4P  2  1  0.00      1.500      2.200     2.500000
    3D  3  2  6.30      1.500      1.800    -0.459350
    3D  3  2  0.00      0.700      1.800    -0.300000

    Pseudization used: troullier-martins
<PP_INPUTFILE>
 &input
   title='Fe',
   zed=26.,
   rel=1,
   config='[Ar] 4s1.7 3d6.3 4p0',
   iswitch=3,
   dft='PBE'
 /
 &inputp
   pseudotype=3,
   file_pseudopw='Fe.pbe-n-rrkjus_psl.0.2.4.UPF',
   author='ADC',
   lloc=-1,
   rcloc=2.1,
   which_augfun='PSQ',
   rmatch_augfun=1.3,
   nlcc=.true.,
   new_core_ps=.true.,
   rcore=1.2,
   tm=.true.
 /
6
4S 1 0 1.70  0.00  1.70  2.20  0.0
4S 1 0 0.00  2.30  1.50  2.20  0.0
4P 2 1 0.00  0.00  1.90  2.20  0.0
4P 2 1 0.00  2.50  1.50  2.20  0.0
3D 3 2 6.30  0.00  1.50  1.80  0.0
3D 3 2 0.00 -0.30  0.70  1.80  0.0
</PP_INPUTFILE>
  </PP_INFO>
  <!--                               -->
  <!-- END OF HUMAN READABLE SECTION -->
  <!--                               -->
  <PP_HEADER generated='Generated using "atomic" code by A. Dal Corso  v.5.0.2 svn rev. 10057M'
             author="ADC"
             date=" 4Apr2013"
             comment=""
             element="Fe"
             pseudo_type="USPP"
             relativistic="scalar"
             is_ultrasoft="T"
             is_paw="F"
             is_coulomb="F"
             has_so="F"
             has_wfc="F"
             has_gipaw="F"
             paw_as_gipaw="F"
             core_correction="T"
             functional="PBE"
             z_valence="7.999999999999999E+000"
             total_psenergy="-6.061126251694950E+001"
             wfc_cutoff="3.744805145320951E+001"
             rho_cutoff="2.350643670172394E+002"
             l_max="2"
             l_max_rho="4"
             l_local="-1"
             mesh_size="1191"
             number_of_wfc="3"
             number_of_proj="6"/>
  <PP_MESH dx="1.250000000000000E-002" mesh="1191" xmin="-7.000000000000000E+000" rmax="1.000000000000000E+002"
zmesh="2.600000000000000E+001">
    <PP_R type="real" size="1191" columns="4">
 3.507238329055831E-005  3.551353956419316E-005  3.596024490063778E-005  3.641256909850977E-005 
 3.687058283438538E-005  3.733435767384265E-005  3.780396608264379E-005  3.827948143805812E-005 
 3.876097804032732E-005  3.924853112427518E-005  3.974221687106296E-005  4.024211242009302E-005 
 4.074829588106193E-005  4.126084634616526E-005  4.177984390245608E-005  4.230536964435839E-005 
 4.283750568633858E-005  4.337633517573586E-005  4.392194230575413E-005  4.447441232861761E-005 
 4.503383156889132E-005  4.560028743696972E-005  4.617386844273465E-005  4.675466420938518E-005 
 4.734276548744158E-005  4.793826416892498E-005  4.854125330171594E-005  4.915182710409325E-005 
 4.977008097945569E-005  5.039611153122924E-005  5.103001657796121E-005  5.167189516860488E-005 
 5.232184759799592E-005  5.297997542252373E-005  5.364638147599995E-005  5.432116988572622E-005 
 5.500444608876440E-005  5.569631684841137E-005  5.639689027088089E-005  5.710627582219565E-005 
 5.782458434529124E-005  5.855192807733583E-005  5.928842066726732E-005  6.003417719355124E-005 
 6.078931418216220E-005  6.155394962479094E-005  6.232820299728103E-005  6.311219527829716E-005 
 6.390604896822823E-005  6.470988810832850E-005  6.552383830009900E-005  6.634802672491317E-005 
 6.718258216388922E-005  6.802763501801234E-005  6.888331732851038E-005  6.974976279748520E-005 
 7.062710680880412E-005  7.151548644925388E-005  7.241504052996067E-005  7.332590960807986E-005 
 7.424823600875805E-005  7.518216384737181E-005  7.612783905204602E-005  7.708540938645534E-005 
 7.805502447291284E-005  7.903683581574842E-005  8.003099682498190E-005  8.103766284029362E-005 
 8.205699115529647E-005  8.308914104211363E-005  8.413427377626481E-005  8.519255266186604E-005 
 8.626414305714629E-005  8.734921240028488E-005  8.844793023557446E-005  8.956046823991207E-005 
 9.068700024962434E-005  9.182770228762974E-005  9.298275259094244E-005  9.415233163852242E-005 
 9.533662217947532E-005  9.653580926160763E-005  9.775008026034071E-005  9.897962490798846E-005 
 1.002246353234038E-004  1.014853060419970E-004  1.027618340461327E-004  1.040544187959087E-004 
 1.053632622603219E-004  1.066885689488265E-004  1.080305459432890E-004  1.093894029303449E-004 
 1.107653522341632E-004  1.121586088496218E-004  1.135693904759018E-004  1.149979175505023E-004 
 1.164444132836852E-004  1.179091036933517E-004  1.193922176403580E-004  1.208939868642762E-004 
 1.224146460196026E-004  1.239544327124241E-004  1.255135875375442E-004  1.270923541160762E-004 
 1.286909791335105E-004  1.303097123782581E-004  1.319488067806821E-004  1.336085184526174E-004 
 1.352891067273896E-004  1.369908342003358E-004  1.387139667698358E-004  1.404587736788594E-004 
 1.422255275570358E-004  1.440145044632531E-004  1.458259839287926E-004  1.476602490010063E-004 
 1.495175862875435E-004  1.513982860011340E-004  1.533026420049343E-004  1.552309518584446E-004 
 1.571835168640026E-004  1.591606421138630E-004  1.611626365378684E-004  1.631898129517208E-004 
 1.652424881058592E-004  1.673209827349526E-004  1.694256216080156E-004  1.715567335791539E-004 
 1.737146516389487E-004  1.758997129664874E-004  1.781122589820479E-004  1.803526354004466E-004 
 1.826211922850568E-004  1.849182841025072E-004  1.872442697780678E-004  1.895995127517328E-004 
 1.919843810350083E-004  1.943992472684159E-004  1.968444887797174E-004  1.993204876428740E-004 
 2.018276307377456E-004  2.043663098105414E-004  2.069369215350316E-004  2.095398675745279E-004 
 2.121755546446451E-004  2.148443945768500E-004  2.175468043828118E-004  2.202832063195610E-004 
 2.230540279554670E-004  2.258597022370482E-004  2.287006675566190E-004  2.315773678207907E-004 
 2.344902525198322E-004  2.374397767979039E-004  2.404264015241754E-004  2.434505933648364E-004 
 2.465128248560147E-004  2.496135744776110E-004  2.527533267280620E-004  2.559325722000452E-004 
 2.591518076571333E-004  2.624115361114165E-004  2.657122669020974E-004  2.690545157750773E-004 
 2.724388049635433E-004  2.758656632695653E-004  2.793356261467266E-004  2.828492357837860E-004 
 2.864070411893976E-004  2.900095982778953E-004  2.936574699561523E-004  2.973512262115412E-004 
 3.010914442009913E-004  3.048787083411728E-004  3.087136103998139E-004  3.125967495881619E-004 
 3.165287326546166E-004  3.205101739795311E-004  3.245416956712127E-004  3.286239276631287E-004 
 3.327575078123321E-004  3.369430819991319E-004  3.411813042280099E-004  3.454728367298122E-004 
 3.498183500652240E-004  3.542185232295438E-004  3.586740437587818E-004  3.631856078370851E-004 
 3.677539204055194E-004  3.723796952722190E-004  3.770636552239164E-004  3.818065321388851E-004 
 3.866090671012918E-004  3.914720105169950E-004  3.963961222307981E-004  4.013821716451733E-004 
 4.064309378404867E-004  4.115432096967280E-004  4.167197860167751E-004  4.219614756512111E-004 
 4.272690976247041E-004  4.326434812639871E-004  4.380854663274376E-004  4.435959031362932E-004 
 4.491756527075174E-004  4.548255868883315E-004  4.605465884924470E-004  4.663395514380038E-004 
 4.722053808872475E-004  4.781449933879651E-004  4.841593170166923E-004  4.902492915237334E-004 
 4.964158684799951E-004  5.026600114256723E-004  5.089826960208054E-004  5.153849101977242E-004 
 5.218676543154205E-004  5.284319413158517E-004  5.350787968822162E-004  5.418092595992206E-004 
 5.486243811153560E-004  5.555252263072261E-004  5.625128734459316E-004  5.695884143655538E-004 
 5.767529546337584E-004  5.840076137245364E-004  5.913535251931320E-004  5.987918368531573E-004 
 6.063237109559418E-004  6.139503243721393E-004  6.216728687756106E-004  6.294925508296318E-004 
 6.374105923754329E-004  6.454282306231138E-004  6.535467183449647E-004  6.617673240712070E-004 
 6.700913322882121E-004  6.785200436391985E-004  6.870547751274629E-004  6.956968603221658E-004 
 7.044476495666992E-004  7.133085101896879E-004  7.222808267186311E-004  7.313660010962406E-004 
 7.405654528994973E-004  7.498806195614613E-004  7.593129565958762E-004  7.688639378245934E-004 
 7.785350556078612E-004  7.883278210775099E-004  7.982437643730670E-004  8.082844348808473E-004 
 8.184514014760452E-004  8.287462527678759E-004  8.391705973477989E-004  8.497260640408632E-004 
 8.604143021602155E-004  8.712369817648066E-004  8.821957939203434E-004  8.932924509635221E-004 
 9.045286867695810E-004  9.159062570232261E-004  9.274269394929567E-004  9.390925343088475E-004 
 9.509048642438230E-004  9.628657749984672E-004  9.749771354894209E-004  9.872408381414012E-004 
 9.996587991828979E-004  1.012232958945589E-003  1.024965282167519E-003  1.037857758300096E-003 
 1.050912401818945E-003  1.064131252538676E-003  1.077516375931608E-003  1.091069863450504E-003 
 1.104793832855363E-003  1.118690428544326E-003  1.132761821888742E-003  1.147010211572450E-003 
 1.161437823935327E-003  1.176046913321157E-003  1.190839762429880E-003  1.205818682674265E-003 
 1.220986014541075E-003  1.236344127956772E-003  1.251895422657824E-003  1.267642328565668E-003 
 1.283587306166388E-003  1.299732846895175E-003  1.316081473525617E-003  1.332635740563886E-003 
 1.349398234647886E-003  1.366371574951422E-003  1.383558413593449E-003  1.400961436052471E-003 
 1.418583361586154E-003  1.436426943656216E-003  1.454494970358657E-003  1.472790264859410E-003 
 1.491315685835462E-003  1.510074127921531E-003  1.529068522162358E-003  1.548301836470687E-003 
 1.567777076091009E-003  1.587497284069136E-003  1.607465541727689E-003  1.627684969147551E-003 
 1.648158725655392E-003  1.668890010317322E-003  1.689882062438747E-003  1.711138162070520E-003 
 1.732661630521455E-003  1.754455830877285E-003  1.776524168526159E-003  1.798870091690730E-003 
 1.821497091966959E-003  1.844408704869672E-003  1.867608510384999E-003  1.891100133529753E-003 
 1.914887244917844E-003  1.938973561333822E-003  1.963362846313631E-003  1.988058910732670E-003 
 2.013065613401245E-003  2.038386861667531E-003  2.064026612028082E-003  2.089988870746057E-003 
 2.116277694477202E-003  2.142897190903708E-003  2.169851519376052E-003  2.197144891562896E-003 
 2.224781572109172E-003  2.252765879302445E-003  2.281102185747643E-003  2.309794919050305E-003 
 2.338848562508384E-003  2.368267655812779E-003  2.398056795756671E-003  2.428220636953784E-003 
 2.458763892565676E-003  2.489691335038175E-003  2.521007796847091E-003  2.552718171253294E-003 
 2.584827413067298E-003  2.617340539423469E-003  2.650262630563946E-003  2.683598830632449E-003 
 2.717354348478062E-003  2.751534458469124E-003  2.786144501317364E-003  2.821189884912390E-003 
 2.856676085166689E-003  2.892608646871247E-003  2.928993184561936E-003  2.965835383396797E-003 
 3.003141000044353E-003  3.040915863583103E-003  3.079165876412330E-003  3.117897015174355E-003 
 3.157115331688415E-003  3.196826953896253E-003  3.237038086819631E-003  3.277755013529880E-003 
 3.318984096129634E-003  3.360731776746938E-003  3.403004578541820E-003  3.445809106725566E-003 
 3.489152049592791E-003  3.533040179566496E-003  3.577480354256288E-003  3.622479517529873E-003 
 3.668044700598064E-003  3.714183023113418E-003  3.760901694282694E-003  3.808208013993319E-003 
 3.856109373953990E-003  3.904613258849657E-003  3.953727247511017E-003  4.003459014098717E-003 
 4.053816329302474E-003  4.104807061555239E-003  4.156439178262666E-003  4.208720747048038E-003 
 4.261659937012845E-003  4.315265020013221E-003  4.369544371952453E-003  4.424506474089708E-003 
 4.480159914365270E-003  4.536513388742407E-003  4.593575702566139E-003  4.651355771939104E-003 
 4.709862625114690E-003  4.769105403907741E-003  4.829093365122974E-003  4.889835882001369E-003 
 4.951342445684778E-003  5.013622666698912E-003  5.076686276455010E-003  5.140543128770404E-003 
 5.205203201408181E-003  5.270676597636249E-003  5.336973547805973E-003  5.404104410950699E-003 
 5.472079676404372E-003  5.540909965440511E-003  5.610606032931824E-003  5.681178769030648E-003 
 5.752639200870583E-003  5.824998494289487E-003  5.898267955574172E-003  5.972459033227039E-003 
 6.047583319754911E-003  6.123652553480398E-003  6.200678620376034E-003  6.278673555921477E-003 
 6.357649546984099E-003  6.437618933723175E-003  6.518594211518084E-003  6.600588032920725E-003 
 6.683613209632506E-003  6.767682714506212E-003  6.852809683573019E-003  6.939007418095033E-003 
 7.026289386643645E-003  7.114669227204010E-003  7.204160749306040E-003  7.294777936182128E-003 
 7.386534946952085E-003  7.479446118835525E-003  7.573525969392079E-003  7.668789198789814E-003 
 7.765250692102133E-003  7.862925521633620E-003  7.961828949275107E-003  8.061976428888378E-003 
 8.163383608720888E-003  8.266066333850795E-003  8.370040648662808E-003  8.475322799355154E-003 
 8.581929236478070E-003  8.689876617504266E-003  8.799181809431634E-003  8.909861891418803E-003 
 9.021934157453762E-003  9.135416119056081E-003  9.250325508013161E-003  9.366680279150800E-003 
 9.484498613138716E-003  9.603798919331297E-003  9.724599838644096E-003  9.846920246466542E-003 
 9.970779255611215E-003  1.009619621930028E-002  1.022319073418949E-002  1.035178264343015E-002 
 1.048199203976972E-002  1.061383926869128E-002  1.074734493159259E-002  1.088252988900512E-002 
 1.101941526385346E-002  1.115802244475598E-002  1.129837308936665E-002  1.144048912775926E-002 
 1.158439276585393E-002  1.173010648888690E-002  1.187765306492384E-002  1.202705554841746E-002 
 1.217833728380975E-002  1.233152190917965E-002  1.248663335993653E-002  1.264369587256016E-002 
 1.280273398838768E-002  1.296377255744825E-002  1.312683674234592E-002  1.329195202219133E-002 
 1.345914419658290E-002  1.362843938963803E-002  1.379986405407507E-002  1.397344497534659E-002 
 1.414920927582470E-002  1.432718441903896E-002  1.450739821396758E-002  1.468987881938266E-002 
 1.487465474825006E-002  1.506175487218458E-002  1.525120842596127E-002  1.544304501208334E-002 
 1.563729460540767E-002  1.583398755782841E-002  1.603315460301955E-002  1.623482686123714E-002 
 1.643903584418180E-002  1.664581345992260E-002  1.685519201788268E-002  1.706720423388769E-002 
 1.728188323527776E-002  1.749926256608361E-002  1.771937619226793E-002  1.794225850703264E-002 
 1.816794433619287E-002  1.839646894361862E-002  1.862786803674472E-002  1.886217777215024E-002 
 1.909943476120807E-002  1.933967607580542E-002  1.958293925413651E-002  1.982926230656786E-002 
 2.007868372157755E-002  2.033124247176914E-002  2.058697801996116E-002  2.084593032535335E-002 
 2.110813984977026E-002  2.137364756398353E-002  2.164249495411370E-002  2.191472402811242E-002 
 2.219037732232641E-002  2.246949790814369E-002  2.275212939872367E-002  2.303831595581176E-002 
 2.332810229663975E-002  2.362153370091300E-002  2.391865601788540E-002  2.421951567352348E-002 
 2.452415967776053E-002  2.483263563184200E-002  2.514499173576336E-002  2.546127679580132E-002 
 2.578154023213999E-002  2.610583208659288E-002  2.643420303042201E-002  2.676670437225546E-002 
 2.710338806610437E-002  2.744430671948088E-002  2.778951360161818E-002  2.813906265179391E-002 
 2.849300848775838E-002  2.885140641426854E-002  2.921431243172957E-002  2.958178324494504E-002 
 2.995387627197711E-002  3.033064965311834E-002  3.071216225997605E-002  3.109847370467126E-002 
 3.148964434915318E-002  3.188573531463079E-002  3.228680849112336E-002  3.269292654713071E-002 
 3.310415293942532E-002  3.352055192296764E-002  3.394218856094598E-002  3.436912873494292E-002 
 3.480143915522922E-002  3.523918737118762E-002  3.568244178186744E-002  3.613127164667215E-002 
 3.658574709618131E-002  3.704593914310855E-002  3.751191969339743E-002  3.798376155745700E-002 
 3.846153846153846E-002  3.894532505925518E-002  3.943519694324728E-002  3.993123065699329E-002 
 4.043350370677019E-002  4.094209457376382E-002  4.145708272633199E-002  4.197854863242123E-002 
 4.250657377214032E-002  4.304124065049159E-002  4.358263281026255E-002  4.413083484507971E-002 
 4.468593241262629E-002  4.524801224802658E-002  4.581716217739842E-002  4.639347113157618E-002 
 4.697702916000654E-002  4.756792744481866E-002  4.816625831507174E-002  4.877211526118155E-002 
 4.938559294952852E-002  5.000678723724967E-002  5.063579518721623E-002  5.127271508320013E-002 
 5.191764644523093E-002  5.257069004514602E-002  5.323194792233660E-002  5.390152339969130E-002 
 5.457952109974069E-002  5.526604696100482E-002  5.596120825454620E-002  5.666511360073138E-002 
 5.737787298620272E-002  5.809959778106436E-002  5.883040075628384E-002  5.957039610131281E-002 
 6.031969944192958E-002  6.107842785830554E-002  6.184669990329938E-002  6.262463562098119E-002 
 6.341235656538954E-002  6.420998581952474E-002  6.501764801458046E-002  6.583546934941789E-002 
 6.666357761028448E-002  6.750210219078071E-002  6.835117411207842E-002  6.921092604339266E-002 
 7.008149232271192E-002  7.096300897778850E-002  7.185561374739316E-002  7.275944610283731E-002 
 7.367464726976526E-002  7.460136025022135E-002  7.553972984499417E-002  7.648990267624199E-002 
 7.745202721040297E-002  7.842625378139291E-002  7.941273461409568E-002  8.041162384814834E-002 
 8.142307756202595E-002  8.244725379742922E-002  8.348431258397858E-002  8.453441596421934E-002 
 8.559772801894112E-002  8.667441489281572E-002  8.776464482035785E-002  8.886858815221171E-002 
 8.998641738176892E-002  9.111830717212083E-002  9.226443438334993E-002  9.342497810016495E-002 
 9.460011965988271E-002  9.579004268076277E-002  9.699493309069807E-002  9.821497915626641E-002 
 9.945037151214796E-002  1.007013031909116E-001  1.019679696531772E-001  1.032505688181566E-001 
 1.045493010945787E-001  1.058643694120041E-001  1.071959792525328E-001  1.085443386829115E-001 
 1.099096583870448E-001  1.112921516989139E-001  1.126920346359117E-001  1.141095259325949E-001 
 1.155448470748628E-001  1.169982223345641E-001  1.184698788045397E-001  1.199600464341075E-001 
 1.214689580649911E-001  1.229968494677029E-001  1.245439593783832E-001  1.261105295361028E-001 
 1.276968047206366E-001  1.293030327907089E-001  1.309294647227238E-001  1.325763546499799E-001 
 1.342439599023785E-001  1.359325410466336E-001  1.376423619269839E-001  1.393736897064208E-001 
 1.411267949084326E-001  1.429019514592732E-001  1.446994367307659E-001  1.465195315836409E-001 
 1.483625204114220E-001  1.502286911848636E-001  1.521183354969453E-001  1.540317486084357E-001 
 1.559692294940260E-001  1.579310808890466E-001  1.599176093367696E-001  1.619291252363061E-001 
 1.639659428911086E-001  1.660283805580786E-001  1.681167604972983E-001  1.702314090223822E-001 
 1.723726565514640E-001  1.745408376588272E-001  1.767362911271804E-001  1.789593600005950E-001 
 1.812103916381056E-001  1.834897377679847E-001  1.857977545427032E-001  1.881348025945772E-001 
 1.905012470921197E-001  1.928974577970986E-001  1.953238091223108E-001  1.977806801900881E-001 
 2.002684548915327E-001  2.027875219465035E-001  2.053382749643531E-001  2.079211125054295E-001 
 2.105364381433540E-001  2.131846605280779E-001  2.158661934497367E-001  2.185814559033057E-001 
 2.213308721540666E-001  2.241148718039030E-001  2.269338898584238E-001  2.297883667949354E-001 
 2.326787486312673E-001  2.356054869954610E-001  2.385690391963412E-001  2.415698682949679E-001 
 2.446084431769934E-001  2.476852386259255E-001  2.508007353973120E-001  2.539554202938629E-001 
 2.571497862415105E-001  2.603843323664336E-001  2.636595640730455E-001  2.669759931229629E-001 
 2.703341377149731E-001  2.737345225659999E-001  2.771776789930948E-001  2.806641449964553E-001 
 2.841944653434866E-001  2.877691916539264E-001  2.913888824860326E-001  2.950541034238626E-001 
 2.987654271656453E-001  3.025234336132651E-001  3.063287099628761E-001  3.101818507966491E-001 
 3.140834581756787E-001  3.180341417340567E-001  3.220345187741256E-001  3.260852143629377E-001 
 3.301868614299191E-001  3.343401008657693E-001  3.385455816226005E-001  3.428039608153360E-001 
 3.471159038243897E-001  3.514820843996280E-001  3.559031847656496E-001  3.603798957283821E-001 
 3.649129167830202E-001  3.695029562233274E-001  3.741507312523034E-001  3.788569680942531E-001 
 3.836224021082587E-001  3.884477779030790E-001  3.933338494535004E-001  3.982813802181421E-001 
 4.032911432587527E-001  4.083639213610004E-001  4.135005071567829E-001  4.187017032480827E-001 
 4.239683223323694E-001  4.293011873295909E-001  4.347011315107535E-001  4.401689986281200E-001 
 4.457056430470540E-001  4.513119298795082E-001  4.569887351192075E-001  4.627369457785208E-001 
 4.685574600270567E-001  4.744511873320102E-001  4.804190486002620E-001  4.864619763222778E-001 
 4.925809147178093E-001  4.987768198834282E-001  5.050506599419242E-001  5.114034151935688E-001 
 5.178360782692966E-001  5.243496542857986E-001  5.309451610025806E-001  5.376236289809865E-001 
 5.443861017452234E-001  5.512336359454211E-001  5.581673015227279E-001  5.651881818764978E-001 
 5.722973740335712E-001  5.794959888196843E-001  5.867851510330454E-001  5.941659996200779E-001 
 6.016396878533912E-001  6.092073835119781E-001  6.168702690636798E-001  6.246295418499561E-001 
 6.324864142729639E-001  6.404421139850055E-001  6.484978840803480E-001  6.566549832894562E-001 
 6.649146861756794E-001  6.732782833343958E-001  6.817470815946786E-001  6.903224042234868E-001 
 6.990055911324257E-001  7.077979990871182E-001  7.167010019191929E-001  7.257159907409571E-001 
 7.348443741627565E-001  7.440875785130699E-001  7.534470480613854E-001  7.629242452438589E-001 
 7.725206508918334E-001  7.822377644632165E-001  7.920771042767706E-001  8.020402077493629E-001 
 8.121286316361780E-001  8.223439522739747E-001  8.326877658273875E-001  8.431616885383258E-001 
 8.537673569785256E-001  8.645064283052548E-001  8.753805805202588E-001  8.863915127319462E-001 
 8.975409454208739E-001  9.088306207085866E-001  9.202623026298136E-001  9.318377774081146E-001 
 9.435588537349759E-001  9.554273630524173E-001  9.674451598391691E-001  9.796141219004267E-001 
 9.919361506612716E-001  1.004413171463769E+000  1.017047133867800E+000  1.029840011955698E+000 
 1.042793804640689E+000  1.055910535979235E+000  1.069192255487296E+000  1.082641038460564E+000 
 1.096258986298743E+000  1.110048226833886E+000  1.124010914662882E+000  1.138149231484115E+000 
 1.152465386438347E+000  1.166961616453922E+000  1.181640186596267E+000  1.196503390421833E+000 
 1.211553550336460E+000  1.226793017958250E+000  1.242224174485028E+000  1.257849431066391E+000 
 1.273671229180473E+000  1.289692041015422E+000  1.305914369855675E+000  1.322340750473124E+000 
 1.338973749523156E+000  1.355815965945713E+000  1.372870031371381E+000  1.390138610532574E+000 
 1.407624401679925E+000  1.425330137003869E+000  1.443258583061577E+000  1.461412541209223E+000 
 1.479794848039698E+000  1.498408375825847E+000  1.517256032969252E+000  1.536340764454690E+000 
 1.555665552310286E+000  1.575233416073454E+000  1.595047413262724E+000  1.615110639855462E+000 
 1.635426230771646E+000  1.655997360363691E+000  1.676827242912443E+000  1.697919133129434E+000 
 1.719276326665418E+000  1.740902160625337E+000  1.762800014089751E+000  1.784973308642807E+000 
 1.807425508906898E+000  1.830160123083989E+000  1.853180703503801E+000  1.876490847178864E+000 
 1.900094196366546E+000  1.923994439138185E+000  1.948195309955333E+000  1.972700590253296E+000 
 1.997514109031980E+000  2.022639743454171E+000  2.048081419451373E+000  2.073843112337214E+000 
 2.099928847428624E+000  2.126342700674788E+000  2.153088799294006E+000  2.180171322418611E+000 
 2.207594501747932E+000  2.235362622209538E+000  2.263480022628749E+000  2.291951096406577E+000 
 2.320780292206233E+000  2.349972114648207E+000  2.379531125014149E+000  2.409461941959574E+000 
 2.439769242235513E+000  2.470457761419306E+000  2.501532294654500E+000  2.532997697400142E+000 
 2.564858886189431E+000  2.597120839397929E+000  2.629788598021470E+000  2.662867266463794E+000 
 2.696362013334148E+000  2.730278072254882E+000  2.764620742679195E+000  2.799395390719221E+000 
 2.834607449984456E+000  2.870262422430804E+000  2.906365879220257E+000  2.942923461591380E+000 
 2.979940881740807E+000  3.017423923715737E+000  3.055378444317744E+000  3.093810374017897E+000 
 3.132725717883390E+000  3.172130556515889E+000  3.212031047001588E+000  3.252433423873308E+000 
 3.293344000084641E+000  3.334769167996342E+000  3.376715400375189E+000  3.419189251405320E+000 
 3.462197357712377E+000  3.505746439400478E+000  3.549843301102226E+000  3.594494833041990E+000 
 3.639708012112467E+000  3.685489902964880E+000  3.731847659112825E+000  3.778788524050003E+000 
 3.826319832382075E+000  3.874449010972659E+000  3.923183580103834E+000  3.972531154651187E+000 
 4.022499445273624E+000  4.073096259618231E+000  4.124329503540175E+000  4.176207182338062E+000 
 4.228737402004755E+000  4.281928370493937E+000  4.335788399002666E+000  4.390325903269963E+000 
 4.445549404891834E+000  4.501467532652766E+000  4.558089023873975E+000  4.615422725778675E+000 
 4.673477596874422E+000  4.732262708352944E+000  4.791787245507518E+000  4.852060509168161E+000 
 4.913091917154963E+000  4.974891005749575E+000  5.037467431185330E+000  5.100830971156025E+000 
 5.164991526343674E+000  5.229959121965582E+000  5.295743909340720E+000  5.362356167475967E+000 
 5.429806304672192E+000  5.498104860150539E+000  5.567262505699275E+000  5.637290047341200E+000 
 5.708198427022177E+000  5.779998724320807E+000  5.852702158179601E+000  5.926320088658035E+000 
 6.000864018707504E+000  6.076345595968748E+000  6.152776614591795E+000  6.230169017078783E+000 
 6.308534896150077E+000  6.387886496633697E+000  6.468236217378671E+000  6.549596613192351E+000 
 6.631980396802090E+000  6.715400440841710E+000  6.799869779862787E+000  6.885401612371410E+000 
 6.972009302890437E+000  7.059706384047692E+000  7.148506558690551E+000  7.238423702026942E+000 
 7.329471863793461E+000  7.421665270450638E+000  7.515018327405806E+000  7.609545621264067E+000 
 7.705261922107378E+000  7.802182185802495E+000  7.900321556337821E+000  7.999695368189640E+000 
 8.100319148718260E+000  8.202208620594080E+000  8.305379704254388E+000  8.409848520390931E+000 
 8.515631392468737E+000  8.622744849276819E+000  8.731205627510697E+000  8.841030674387648E+000 
 8.952237150294703E+000  9.064842431469947E+000  9.178864112717687E+000  9.294320010157568E+000 
 9.411228164008476E+000  9.529606841407320E+000  9.649474539263254E+000  9.770849987147972E+000 
 9.893752150222115E+000  1.001820023219872E+001  1.014421367834382E+001  1.027181217851470E+001 
 1.040101567023665E+001  1.053184434181810E+001  1.066431863550515E+001  1.079845925067575E+001 
 1.093428714707388E+001  1.107182354808474E+001  1.121108994405078E+001  1.135210809562970E+001 
 1.149490003719464E+001  1.163948808027692E+001  1.178589481705248E+001  1.193414312387178E+001 
 1.208425616483439E+001  1.223625739540839E+001  1.239017056609525E+001  1.254601972614109E+001 
 1.270382922729419E+001  1.286362372761019E+001  1.302542819530491E+001  1.318926791265555E+001 
 1.335516847995135E+001  1.352315581949341E+001  1.369325617964535E+001  1.386549613893453E+001 
 1.403990261020496E+001  1.421650284482266E+001  1.439532443693355E+001  1.457639532777521E+001 
 1.475974381004278E+001  1.494539853230957E+001  1.513338850350371E+001  1.532374309744061E+001 
 1.551649205741289E+001  1.571166550083771E+001  1.590929392396265E+001  1.610940820663093E+001 
 1.631203961710633E+001  1.651721981695900E+001  1.672498086601264E+001  1.693535522735380E+001 
 1.714837577240452E+001  1.736407578605829E+001  1.758248897188111E+001  1.780364945737768E+001 
 1.802759179932373E+001  1.825435098916588E+001  1.848396245848882E+001  1.871646208455181E+001 
 1.895188619589449E+001  1.919027157801316E+001  1.943165547910883E+001  1.967607561590708E+001 
 1.992357017955161E+001  2.017417784157156E+001  2.042793775992389E+001  2.068488958511221E+001 
 2.094507346638190E+001  2.120853005799380E+001  2.147530052557638E+001  2.174542655255789E+001 
 2.201895034667969E+001  2.229591464659102E+001  2.257636272852726E+001  2.286033841307185E+001 
 2.314788607200316E+001  2.343905063522800E+001  2.373387759780168E+001  2.403241302703696E+001 
 2.433470356970208E+001  2.464079645930926E+001  2.495073952349535E+001  2.526458119149461E+001 
 2.558237050170622E+001  2.590415710935652E+001  2.622999129425752E+001  2.655992396866363E+001 
 2.689400668522638E+001  2.723229164504998E+001  2.757483170584769E+001  2.792168039020082E+001 
 2.827289189392207E+001  2.862852109452335E+001  2.898862355979082E+001  2.935325555646737E+001 
 2.972247405904423E+001  3.009633675866371E+001  3.047490207213315E+001  3.085822915105304E+001 
 3.124637789105939E+001  3.163940894118240E+001  3.203738371332341E+001  3.244036439185014E+001 
 3.284841394331352E+001  3.326159612628622E+001  3.367997550132485E+001  3.410361744105805E+001 
 3.453258814040070E+001  3.496695462689740E+001  3.540678477119543E+001  3.585214729764955E+001 
 3.630311179506076E+001  3.675974872754914E+001  3.722212944556448E+001  3.769032619703478E+001 
 3.816441213865485E+001  3.864446134731777E+001  3.913054883168889E+001  3.962275054392668E+001 