
     Program PWSCF v.5.0.2 (svn rev. 9392) starts on  4Oct2016 at 22:11:20 

     This program is part of the open-source Quantum ESPRESSO suite
     for quantum simulation of materials; please cite
         "P. Giannozzi et al., J. Phys.:Condens. Matter 21 395502 (2009);
          URL http://www.quantum-espresso.org", 
     in publications or presentations arising from this work. More details at
     http://www.quantum-espresso.org/quote.php

     Parallel version (MPI), running on     4 processors
     R & G space division:  proc/nbgrp/npool/nimage =       4

     Current dimensions of program PWSCF are:
     Max number of different atomic species (ntypx) = 10
     Max number of k-points (npk) =  40000
     Max angular momentum in pseudopotentials (lmaxx) =  3
     Waiting for input...
     Reading input from standard input

     Subspace diagonalization in iterative solution of the eigenvalue problem:
     a serial algorithm will be used


     Parallelization info
     --------------------
     sticks:   dense  smooth     PW     G-vecs:    dense   smooth      PW
     Min         344     344     99                 8455     8455    1302
     Max         346     346    100                 8456     8456    1303
     Sum        1381    1381    397                33823    33823    5209



     bravais-lattice index     =            2
     lattice parameter (alat)  =      10.2612  a.u.
     unit-cell volume          =     270.1061 (a.u.)^3
     number of atoms/cell      =            2
     number of atomic types    =            1
     number of electrons       =         8.00
     number of Kohn-Sham states=           10
     kinetic-energy cutoff     =      95.0000  Ry
     charge density cutoff     =     380.0000  Ry
     convergence threshold     =      1.0E-09
     mixing beta               =       0.3000
     number of iterations used =            8  plain     mixing
     Exchange-correlation      = PBESOL ( 1 410 8 0)
     EXX-fraction              =        0.00

     celldm(1)=  10.261200  celldm(2)=   0.000000  celldm(3)=   0.000000
     celldm(4)=   0.000000  celldm(5)=   0.000000  celldm(6)=   0.000000

     crystal axes: (cart. coord. in units of alat)
               a(1) = (  -0.500000   0.000000   0.500000 )  
               a(2) = (   0.000000   0.500000   0.500000 )  
               a(3) = (  -0.500000   0.500000   0.000000 )  

     reciprocal axes: (cart. coord. in units 2 pi/alat)
               b(1) = ( -1.000000 -1.000000  1.000000 )  
               b(2) = (  1.000000  1.000000  1.000000 )  
               b(3) = ( -1.000000  1.000000 -1.000000 )  


     PseudoPot. # 1 for Si read from file:
     ./Si.pbesol-n-rrkjus_psl.1.0.0.UPF
     MD5 check sum: 8befc6ca08d45158dbd3e93582c1ea6d
     Pseudo is Ultrasoft + core correction, Zval =  4.0
     Generated using "atomic" code by A. Dal Corso  v.5.1
     Using radial grid of 1141 points,  6 beta functions with: 
                l(1) =   0
                l(2) =   0
                l(3) =   1
                l(4) =   1
                l(5) =   2
                l(6) =   2
     Q(r) pseudized with 0 coefficients 


     atomic species   valence    mass     pseudopotential
        Si             4.00    28.08600     Si( 1.00)

     24 Sym. Ops. (no inversion) found
          (note: 24 additional sym.ops. were found but ignored
           their fractional translations are incommensurate with FFT grid)

                                    s                        frac. trans.

      isym =  1     identity                                     

 cryst.   s( 1) = (     1          0          0      )
                  (     0          1          0      )
                  (     0          0          1      )

 cart.    s( 1) = (  1.0000000  0.0000000  0.0000000 )
                  (  0.0000000  1.0000000  0.0000000 )
                  (  0.0000000  0.0000000  1.0000000 )


      isym =  2     180 deg rotation - cart. axis [0,0,1]        

 cryst.   s( 2) = (     0          1         -1      )
                  (     1          0         -1      )
                  (     0          0         -1      )

 cart.    s( 2) = ( -1.0000000  0.0000000  0.0000000 )
                  (  0.0000000 -1.0000000  0.0000000 )
                  (  0.0000000  0.0000000  1.0000000 )


      isym =  3     180 deg rotation - cart. axis [0,1,0]        

 cryst.   s( 3) = (    -1          0          0      )
                  (    -1          0          1      )
                  (    -1          1          0      )

 cart.    s( 3) = ( -1.0000000  0.0000000  0.0000000 )
                  (  0.0000000  1.0000000  0.0000000 )
                  (  0.0000000  0.0000000 -1.0000000 )


      isym =  4     180 deg rotation - cart. axis [1,0,0]        

 cryst.   s( 4) = (     0         -1          1      )
                  (     0         -1          0      )
                  (     1         -1          0      )

 cart.    s( 4) = (  1.0000000  0.0000000  0.0000000 )
                  (  0.0000000 -1.0000000  0.0000000 )
                  (  0.0000000  0.0000000 -1.0000000 )


      isym =  5     120 deg rotation - cart. axis [-1,-1,-1]     

 cryst.   s( 5) = (    -1          0          1      )
                  (    -1          1          0      )
                  (    -1          0          0      )

 cart.    s( 5) = (  0.0000000  1.0000000  0.0000000 )
                  (  0.0000000  0.0000000  1.0000000 )
                  (  1.0000000  0.0000000  0.0000000 )


      isym =  6     120 deg rotation - cart. axis [-1,1,1]       

 cryst.   s( 6) = (     0          1          0      )
                  (     0          0          1      )
                  (     1          0          0      )

 cart.    s( 6) = (  0.0000000 -1.0000000  0.0000000 )
                  (  0.0000000  0.0000000  1.0000000 )
                  ( -1.0000000  0.0000000  0.0000000 )


      isym =  7     120 deg rotation - cart. axis [1,1,-1]       

 cryst.   s( 7) = (     1          0         -1      )
                  (     0          0         -1      )
                  (     0          1         -1      )

 cart.    s( 7) = (  0.0000000  1.0000000  0.0000000 )
                  (  0.0000000  0.0000000 -1.0000000 )
                  ( -1.0000000  0.0000000  0.0000000 )


      isym =  8     120 deg rotation - cart. axis [1,-1,1]       

 cryst.   s( 8) = (     0         -1          0      )
                  (     1         -1          0      )
                  (     0         -1          1      )

 cart.    s( 8) = (  0.0000000 -1.0000000  0.0000000 )
                  (  0.0000000  0.0000000 -1.0000000 )
                  (  1.0000000  0.0000000  0.0000000 )


      isym =  9     120 deg rotation - cart. axis [1,1,1]        

 cryst.   s( 9) = (     0          0         -1      )
                  (     0          1         -1      )
                  (     1          0         -1      )

 cart.    s( 9) = (  0.0000000  0.0000000  1.0000000 )
                  (  1.0000000  0.0000000  0.0000000 )
                  (  0.0000000  1.0000000  0.0000000 )


      isym = 10     120 deg rotation - cart. axis [-1,1,-1]      

 cryst.   s(10) = (    -1          1          0      )
                  (    -1          0          0      )
                  (    -1          0          1      )

 cart.    s(10) = (  0.0000000  0.0000000  1.0000000 )
                  ( -1.0000000  0.0000000  0.0000000 )
                  (  0.0000000 -1.0000000  0.0000000 )


      isym = 11     120 deg rotation - cart. axis [1,-1,-1]      

 cryst.   s(11) = (     0          0          1      )
                  (     1          0          0      )
                  (     0          1          0      )

 cart.    s(11) = (  0.0000000  0.0000000 -1.0000000 )
                  ( -1.0000000  0.0000000  0.0000000 )
                  (  0.0000000  1.0000000  0.0000000 )


      isym = 12     120 deg rotation - cart. axis [-1,-1,1]      

 cryst.   s(12) = (     1         -1          0      )
                  (     0         -1          1      )
                  (     0         -1          0      )

 cart.    s(12) = (  0.0000000  0.0000000 -1.0000000 )
                  (  1.0000000  0.0000000  0.0000000 )
                  (  0.0000000 -1.0000000  0.0000000 )


      isym = 13     inv. 180 deg rotation - cart. axis [1,1,0]   

 cryst.   s(13) = (     0          1          0      )
                  (     1          0          0      )
                  (     0          0          1      )

 cart.    s(13) = (  0.0000000 -1.0000000  0.0000000 )
                  ( -1.0000000  0.0000000  0.0000000 )
                  (  0.0000000  0.0000000  1.0000000 )


      isym = 14     inv. 180 deg rotation - cart. axis [1,-1,0]  

 cryst.   s(14) = (     1          0         -1      )
                  (     0          1         -1      )
                  (     0          0         -1      )

 cart.    s(14) = (  0.0000000  1.0000000  0.0000000 )
                  (  1.0000000  0.0000000  0.0000000 )
                  (  0.0000000  0.0000000  1.0000000 )


      isym = 15     inv.  90 deg rotation - cart. axis [0,0,-1]  

 cryst.   s(15) = (     0         -1          0      )
                  (     0         -1          1      )
                  (     1         -1          0      )

 cart.    s(15) = (  0.0000000 -1.0000000  0.0000000 )
                  (  1.0000000  0.0000000  0.0000000 )
                  (  0.0000000  0.0000000 -1.0000000 )


      isym = 16     inv.  90 deg rotation - cart. axis [0,0,1]   

 cryst.   s(16) = (    -1          0          1      )
                  (    -1          0          0      )
                  (    -1          1          0      )

 cart.    s(16) = (  0.0000000  1.0000000  0.0000000 )
                  ( -1.0000000  0.0000000  0.0000000 )
                  (  0.0000000  0.0000000 -1.0000000 )


      isym = 17     inv. 180 deg rotation - cart. axis [1,0,1]   

 cryst.   s(17) = (     1          0          0      )
                  (     0          0          1      )
                  (     0          1          0      )

 cart.    s(17) = (  0.0000000  0.0000000 -1.0000000 )
                  (  0.0000000  1.0000000  0.0000000 )
                  ( -1.0000000  0.0000000  0.0000000 )


      isym = 18     inv. 180 deg rotation - cart. axis [-1,0,1]  

 cryst.   s(18) = (    -1          0          0      )
                  (    -1          1          0      )
                  (    -1          0          1      )

 cart.    s(18) = (  0.0000000  0.0000000  1.0000000 )
                  (  0.0000000  1.0000000  0.0000000 )
                  (  1.0000000  0.0000000  0.0000000 )


      isym = 19     inv.  90 deg rotation - cart. axis [0,1,0]   

 cryst.   s(19) = (     0         -1          1      )
                  (     1         -1          0      )
                  (     0         -1          0      )

 cart.    s(19) = (  0.0000000  0.0000000 -1.0000000 )
                  (  0.0000000 -1.0000000  0.0000000 )
                  (  1.0000000  0.0000000  0.0000000 )


      isym = 20     inv.  90 deg rotation - cart. axis [0,-1,0]  

 cryst.   s(20) = (     0          1         -1      )
                  (     0          0         -1      )
                  (     1          0         -1      )

 cart.    s(20) = (  0.0000000  0.0000000  1.0000000 )
                  (  0.0000000 -1.0000000  0.0000000 )
                  ( -1.0000000  0.0000000  0.0000000 )


      isym = 21     inv. 180 deg rotation - cart. axis [0,1,1]   

 cryst.   s(21) = (     1         -1          0      )
                  (     0         -1          0      )
                  (     0         -1          1      )

 cart.    s(21) = (  1.0000000  0.0000000  0.0000000 )
                  (  0.0000000  0.0000000 -1.0000000 )
                  (  0.0000000 -1.0000000  0.0000000 )


      isym = 22     inv. 180 deg rotation - cart. axis [0,1,-1]  

 cryst.   s(22) = (     0          0          1      )
                  (     0          1          0      )
                  (     1          0          0      )

 cart.    s(22) = (  1.0000000  0.0000000  0.0000000 )
                  (  0.0000000  0.0000000  1.0000000 )
                  (  0.0000000  1.0000000  0.0000000 )


      isym = 23     inv.  90 deg rotation - cart. axis [-1,0,0]  

 cryst.   s(23) = (     0          0         -1      )
                  (     1          0         -1      )
                  (     0          1         -1      )

 cart.    s(23) = ( -1.0000000  0.0000000  0.0000000 )
                  (  0.0000000  0.0000000 -1.0000000 )
                  (  0.0000000  1.0000000  0.0000000 )


      isym = 24     inv.  90 deg rotation - cart. axis [1,0,0]   

 cryst.   s(24) = (    -1          1          0      )
                  (    -1          0          1      )
                  (    -1          0          0      )

 cart.    s(24) = ( -1.0000000  0.0000000  0.0000000 )
                  (  0.0000000  0.0000000  1.0000000 )
                  (  0.0000000 -1.0000000  0.0000000 )


     point group T_d (-43m) 
     there are  5 classes
     the character table:

       E     8C3   3C2   6S4   6s_d 
A_1    1.00  1.00  1.00  1.00  1.00
A_2    1.00  1.00  1.00 -1.00 -1.00
E      2.00 -1.00  2.00  0.00  0.00
T_1    3.00  0.00 -1.00  1.00 -1.00
T_2    3.00  0.00 -1.00 -1.00  1.00

     the symmetry operations in each class:
     E        1
     3C2      2    3    4
     8C3      5    7    8    6   12    9   10   11
     6s_d    13   14   17   18   21   22
     6S4     15   16   20   19   23   24

   Cartesian axes

     site n.     atom                  positions (alat units)
         1           Si  tau(   1) = (   0.0000000   0.0000000   0.0000000  )
         2           Si  tau(   2) = (  -0.2500000   0.2500000   0.2500000  )

   Crystallographic axes

     site n.     atom                  positions (cryst. coord.)
         1           Si  tau(   1) = (  0.0000000  0.0000000  0.0000000  )
         2           Si  tau(   2) = (  0.2500000  0.2500000  0.2500000  )

     number of k points=    16  gaussian smearing, width (Ry)=  0.0100
                       cart. coord. in units 2pi/alat
        k(    1) = (   0.0000000   0.0000000   0.0000000), wk =   0.0092593
        k(    2) = (  -0.1666667   0.1666667  -0.1666667), wk =   0.0740741
        k(    3) = (  -0.3333333   0.3333333  -0.3333333), wk =   0.0740741
        k(    4) = (   0.5000000  -0.5000000   0.5000000), wk =   0.0370370
        k(    5) = (   0.0000000   0.3333333   0.0000000), wk =   0.0555556
        k(    6) = (  -0.1666667   0.5000000  -0.1666667), wk =   0.2222222
        k(    7) = (   0.6666667  -0.3333333   0.6666667), wk =   0.2222222
        k(    8) = (   0.5000000  -0.1666667   0.5000000), wk =   0.2222222
        k(    9) = (   0.3333333   0.0000000   0.3333333), wk =   0.1111111
        k(   10) = (   0.0000000   0.6666667   0.0000000), wk =   0.0555556
        k(   11) = (   0.8333333  -0.1666667   0.8333333), wk =   0.2222222
        k(   12) = (   0.6666667  -0.0000000   0.6666667), wk =   0.1111111
        k(   13) = (   0.0000000  -1.0000000   0.0000000), wk =   0.0277778
        k(   14) = (   0.6666667  -0.3333333   1.0000000), wk =   0.2222222
        k(   15) = (   0.5000000  -0.1666667   0.8333333), wk =   0.2222222
        k(   16) = (  -0.3333333  -1.0000000   0.0000000), wk =   0.1111111

                       cryst. coord.
        k(    1) = (   0.0000000   0.0000000   0.0000000), wk =   0.0092593
        k(    2) = (   0.0000000   0.0000000   0.1666667), wk =   0.0740741
        k(    3) = (   0.0000000   0.0000000   0.3333333), wk =   0.0740741
        k(    4) = (   0.0000000   0.0000000  -0.5000000), wk =   0.0370370
        k(    5) = (   0.0000000   0.1666667   0.1666667), wk =   0.0555556
        k(    6) = (   0.0000000   0.1666667   0.3333333), wk =   0.2222222
        k(    7) = (   0.0000000   0.1666667  -0.5000000), wk =   0.2222222
        k(    8) = (   0.0000000   0.1666667  -0.3333333), wk =   0.2222222
        k(    9) = (   0.0000000   0.1666667  -0.1666667), wk =   0.1111111
        k(   10) = (   0.0000000   0.3333333   0.3333333), wk =   0.0555556
        k(   11) = (   0.0000000   0.3333333  -0.5000000), wk =   0.2222222
        k(   12) = (   0.0000000   0.3333333  -0.3333333), wk =   0.1111111
        k(   13) = (   0.0000000  -0.5000000  -0.5000000), wk =   0.0277778
        k(   14) = (   0.1666667   0.3333333  -0.5000000), wk =   0.2222222
        k(   15) = (   0.1666667   0.3333333  -0.3333333), wk =   0.2222222
        k(   16) = (   0.1666667  -0.5000000  -0.3333333), wk =   0.1111111

     Dense  grid:    33823 G-vectors     FFT dimensions: (  45,  45,  45)

     Largest allocated arrays     est. size (Mb)     dimensions
        Kohn-Sham Wavefunctions         0.16 Mb     (   1073,   10)
        NL pseudopotentials             0.59 Mb     (   1073,   36)
        Each V/rho on FFT grid          0.37 Mb     (  24300)
        Each G-vector array             0.06 Mb     (   8456)
        G-vector shells                 0.00 Mb     (    339)
     Largest temporary arrays     est. size (Mb)     dimensions
        Auxiliary wavefunctions         0.65 Mb     (   1073,   40)
        Each subspace H/S matrix        0.02 Mb     (  40,  40)
        Each <psi_i|beta_j> matrix      0.01 Mb     (     36,   10)
        Arrays for rho mixing           2.97 Mb     (  24300,   8)

     Initial potential from superposition of free atoms

     starting charge    7.99892, renormalised to    8.00000
     Starting wfc are    8 randomized atomic wfcs

     total cpu time spent up to now is        1.7 secs

     per-process dynamical memory:    14.9 Mb

     Self-consistent Calculation

     iteration #  1     ecut=    95.00 Ry     beta=0.30
     Davidson diagonalization with overlap
     ethr =  1.00E-02,  avg # of iterations =  5.6

     Threshold (ethr) on eigenvalues was too large:
     Diagonalizing with lowered threshold

     Davidson diagonalization with overlap
     ethr =  7.13E-04,  avg # of iterations =  1.8

     total cpu time spent up to now is        5.6 secs

     total energy              =     -22.68106626 Ry
     Harris-Foulkes estimate   =     -22.69123440 Ry
     estimated scf accuracy    <       0.05650516 Ry

     iteration #  2     ecut=    95.00 Ry     beta=0.30
     Davidson diagonalization with overlap
     ethr =  7.06E-04,  avg # of iterations =  1.2

     total cpu time spent up to now is        7.4 secs

     total energy              =     -22.67460216 Ry
     Harris-Foulkes estimate   =     -22.68168067 Ry
     estimated scf accuracy    <       0.02272476 Ry

     iteration #  3     ecut=    95.00 Ry     beta=0.30
     Davidson diagonalization with overlap
     ethr =  2.84E-04,  avg # of iterations =  1.3

     total cpu time spent up to now is        8.7 secs

     total energy              =     -22.67600744 Ry
     Harris-Foulkes estimate   =     -22.67610881 Ry
     estimated scf accuracy    <       0.00035096 Ry

     iteration #  4     ecut=    95.00 Ry     beta=0.30
     Davidson diagonalization with overlap
     ethr =  4.39E-06,  avg # of iterations =  4.5

     total cpu time spent up to now is       10.4 secs

     total energy              =     -22.67604711 Ry
     Harris-Foulkes estimate   =     -22.67604730 Ry
     estimated scf accuracy    <       0.00000335 Ry

     iteration #  5     ecut=    95.00 Ry     beta=0.30
     Davidson diagonalization with overlap
     ethr =  4.19E-08,  avg # of iterations =  2.1

     total cpu time spent up to now is       12.0 secs

     total energy              =     -22.67604819 Ry
     Harris-Foulkes estimate   =     -22.67604815 Ry
     estimated scf accuracy    <       0.00000040 Ry

     iteration #  6     ecut=    95.00 Ry     beta=0.30
     Davidson diagonalization with overlap
     ethr =  4.99E-09,  avg # of iterations =  1.1

     total cpu time spent up to now is       13.4 secs

     total energy              =     -22.67604822 Ry
     Harris-Foulkes estimate   =     -22.67604821 Ry
     estimated scf accuracy    <       0.00000002 Ry

     iteration #  7     ecut=    95.00 Ry     beta=0.30
     Davidson diagonalization with overlap
     ethr =  2.31E-10,  avg # of iterations =  2.4

     total cpu time spent up to now is       14.8 secs

     End of self-consistent calculation

          k = 0.0000 0.0000 0.0000 (  4279 PWs)   bands (ev):

    -5.8253   6.1683   6.1683   6.1683   8.6866   8.6866   8.6866   9.4838
    13.8661  13.8840

     occupation numbers 
     1.0000   0.9983   0.9983   0.9983   0.0000   0.0000   0.0000   0.0000
     0.0000   0.0000

          k =-0.1667 0.1667-0.1667 (  4228 PWs)   bands (ev):

    -5.4627   3.7670   5.7125   5.7125   8.4577   9.3384   9.3384  11.5681
    13.2021  13.2021

     occupation numbers 
     1.0000   1.0000   1.0000   1.0000   0.0000   0.0000   0.0000   0.0000
     0.0000   0.0000

          k =-0.3333 0.3333-0.3333 (  4230 PWs)   bands (ev):

    -4.4416   0.7987   5.1608   5.1608   7.8601   9.6206   9.6206  13.8816
    14.1035  14.1035

     occupation numbers 
     1.0000   1.0000   1.0000   1.0000   0.0000   0.0000   0.0000   0.0000
     0.0000   0.0000

          k = 0.5000-0.5000 0.5000 (  4236 PWs)   bands (ev):

    -3.4754  -0.8511   4.9629   4.9629   7.6333   9.4449   9.4449  13.6906
    16.6865  17.3883

     occupation numbers 
     1.0000   1.0000   1.0000   1.0000   0.0000   0.0000   0.0000   0.0000
     0.0000   0.0000

          k = 0.0000 0.3333 0.0000 (  4232 PWs)   bands (ev):

    -5.3395   4.1253   4.9593   4.9593   7.7942  10.3943  10.4821  10.4821
    12.7230  14.4046

     occupation numbers 
     1.0000   1.0000   1.0000   1.0000   0.0000   0.0000   0.0000   0.0000
     0.0000   0.0000

          k =-0.1667 0.5000-0.1667 (  4216 PWs)   bands (ev):

    -4.5205   1.7122   4.1490   4.4038   8.0512  10.1624  10.6271  11.2042
    15.2049  15.2529

     occupation numbers 
     1.0000   1.0000   1.0000   1.0000   0.0000   0.0000   0.0000   0.0000
     0.0000   0.0000

          k = 0.6667-0.3333 0.6667 (  4232 PWs)   bands (ev):

    -3.3183  -0.4750   3.3578   4.3762   8.1216  10.2217  10.7373  12.5153
    15.4524  16.6035

     occupation numbers 
     1.0000   1.0000   1.0000   1.0000   0.0000   0.0000   0.0000   0.0000
     0.0000   0.0000

          k = 0.5000-0.1667 0.5000 (  4234 PWs)   bands (ev):

    -3.7077   0.1303   3.0818   4.8612   8.5441  10.2198  10.3447  13.3765
    13.4414  15.4681

     occupation numbers 
     1.0000   1.0000   1.0000   1.0000   0.0000   0.0000   0.0000   0.0000
     0.0000   0.0000

          k = 0.3333 0.0000 0.3333 (  4211 PWs)   bands (ev):

    -4.8719   2.4358   3.7159   5.6013   9.1576   9.6826   9.9534  11.7509
    12.2046  15.5169

     occupation numbers 
     1.0000   1.0000   1.0000   1.0000   0.0000   0.0000   0.0000   0.0000
     0.0000   0.0000

          k = 0.0000 0.6667 0.0000 (  4208 PWs)   bands (ev):

    -3.9139   1.1504   3.7273   3.7273   6.7902   8.0441  13.3973  13.3973
    15.9513  16.0143

     occupation numbers 
     1.0000   1.0000   1.0000   1.0000   0.0002   0.0000   0.0000   0.0000
     0.0000   0.0000

          k = 0.8333-0.1667 0.8333 (  4220 PWs)   bands (ev):

    -2.7432  -0.4086   2.4843   3.5909   7.1206   8.7933  13.5755  13.5978
    16.7216  16.8276

     occupation numbers 
     1.0000   1.0000   1.0000   1.0000   0.0000   0.0000   0.0000   0.0000
     0.0000   0.0000

          k = 0.6667-0.0000 0.6667 (  4241 PWs)   bands (ev):

    -2.5412  -0.6185   1.6896   4.0375   7.6309  11.8837  12.6024  13.1927
    13.5317  13.7806

     occupation numbers 
     1.0000   1.0000   1.0000   1.0000   0.0000   0.0000   0.0000   0.0000
     0.0000   0.0000

          k = 0.0000-1.0000 0.0000 (  4200 PWs)   bands (ev):

    -1.6647  -1.6647   3.2907   3.2907   6.7605   6.7605  16.2252  16.2252
    17.1101  17.1101

     occupation numbers 
     1.0000   1.0000   1.0000   1.0000   0.0006   0.0006   0.0000   0.0000
     0.0000   0.0000

          k = 0.6667-0.3333 1.0000 (  4205 PWs)   bands (ev):

    -3.5251   0.5132   2.5471   3.8418   8.9465   9.7834  10.3491  13.1927
    15.1207  16.0033

     occupation numbers 
     1.0000   1.0000   1.0000   1.0000   0.0000   0.0000   0.0000   0.0000
     0.0000   0.0000

          k = 0.5000-0.1667 0.8333 (  4216 PWs)   bands (ev):

    -2.5306  -0.6961   2.1038   3.3668   9.4322   9.6601  12.1925  12.6278
    13.6801  17.2183

     occupation numbers 
     1.0000   1.0000   1.0000   1.0000   0.0000   0.0000   0.0000   0.0000
     0.0000   0.0000

          k =-0.3333-1.0000 0.0000 (  4232 PWs)   bands (ev):

    -1.5404  -1.5404   2.4705   2.4705   8.8279   8.8279  12.8720  12.8720
    16.6977  16.6977

     occupation numbers 
     1.0000   1.0000   1.0000   1.0000   0.0000   0.0000   0.0000   0.0000
     0.0000   0.0000

     the Fermi energy is     6.4504 ev

!    total energy              =     -22.67604822 Ry
     Harris-Foulkes estimate   =     -22.67604822 Ry
     estimated scf accuracy    <          6.7E-10 Ry

     The total energy is the sum of the following terms:

     one-electron contribution =       5.17993544 Ry
     hartree contribution      =       1.08381582 Ry
     xc contribution           =     -12.14083247 Ry
     ewald contribution        =     -16.79896478 Ry
     smearing contrib. (-TS)   =      -0.00000224 Ry

     convergence has been achieved in   7 iterations


     entering subroutine stress ...

          total   stress  (Ry/bohr**3)                   (kbar)     P=    2.45
   0.00001666   0.00000000   0.00000000          2.45      0.00      0.00
   0.00000000   0.00001666   0.00000000          0.00      2.45      0.00
   0.00000000   0.00000000   0.00001666          0.00      0.00      2.45

     kinetic stress (kbar)   2209.65     -0.00      0.00
                               -0.00   2209.65      0.00
                                0.00      0.00   2209.65

     local   stress (kbar)     40.50      0.00      0.00
                                0.00     40.50      0.00
                                0.00      0.00     40.50

     nonloc. stress (kbar)   1627.56      0.00     -0.00
                                0.00   1627.56      0.00
                                0.00      0.00   1627.56

     hartree stress (kbar)    196.76     -0.00     -0.00
                               -0.00    196.76     -0.00
                               -0.00     -0.00    196.76

     exc-cor stress (kbar)   2910.51     -0.00      0.00
                               -0.00   2910.51     -0.00
                                0.00     -0.00   2910.51

     corecor stress (kbar)  -3932.84     -0.00      0.00
                               -0.00  -3932.84     -0.00
                                0.00     -0.00  -3932.84

     ewald   stress (kbar)  -3049.68     -0.00      0.00
                               -0.00  -3049.68      0.00
                                0.00      0.00  -3049.68

     hubbard stress (kbar)      0.00      0.00      0.00
                                0.00      0.00      0.00
                                0.00      0.00      0.00

     london  stress (kbar)      0.00      0.00      0.00
                                0.00      0.00      0.00
                                0.00      0.00      0.00

     dft-nl  stress (kbar)      0.00      0.00      0.00
                                0.00      0.00      0.00
                                0.00      0.00      0.00



     Writing output data file si.save

     init_run     :      1.33s CPU      1.36s WALL (       1 calls)
     electrons    :     12.80s CPU     13.16s WALL (       1 calls)
     stress       :      1.14s CPU      1.16s WALL (       1 calls)

     Called by init_run:
     wfcinit      :      0.58s CPU      0.59s WALL (       1 calls)
     potinit      :      0.10s CPU      0.10s WALL (       1 calls)

     Called by electrons:
     c_bands      :      9.62s CPU      9.93s WALL (       8 calls)
     sum_band     :      2.35s CPU      2.41s WALL (       8 calls)
     v_of_rho     :      0.30s CPU      0.30s WALL (       8 calls)
     v_h          :      0.01s CPU      0.01s WALL (       8 calls)
     v_xc         :      0.32s CPU      0.32s WALL (       9 calls)
     newd         :      0.62s CPU      0.63s WALL (       8 calls)
     mix_rho      :      0.02s CPU      0.02s WALL (       8 calls)

     Called by c_bands:
     init_us_2    :      0.35s CPU      0.40s WALL (     288 calls)
     cegterg      :      9.16s CPU      9.44s WALL (     128 calls)

     Called by sum_band:
     sum_band:bec :      0.00s CPU      0.00s WALL (     128 calls)
     addusdens    :      0.54s CPU      0.55s WALL (       8 calls)

     Called by *egterg:
     h_psi        :      8.19s CPU      8.37s WALL (     465 calls)
     s_psi        :      0.30s CPU      0.35s WALL (     465 calls)
     g_psi        :      0.02s CPU      0.02s WALL (     321 calls)
     cdiaghg      :      0.16s CPU      0.15s WALL (     433 calls)
     cegterg:over :      0.40s CPU      0.45s WALL (     321 calls)
     cegterg:upda :      0.15s CPU      0.17s WALL (     321 calls)
     cegterg:last :      0.10s CPU      0.10s WALL (     134 calls)

     Called by h_psi:
     h_psi:vloc   :      7.36s CPU      7.50s WALL (     465 calls)
     h_psi:vnl    :      0.80s CPU      0.84s WALL (     465 calls)
     add_vuspsi   :      0.28s CPU      0.33s WALL (     465 calls)

     General routines
     calbec       :      0.74s CPU      0.75s WALL (     609 calls)
     fft          :      0.24s CPU      0.24s WALL (     120 calls)
     fftw         :      8.37s CPU      8.46s WALL (    7816 calls)
     davcio       :      0.02s CPU      0.03s WALL (     416 calls)

     Parallel routines
     fft_scatter  :      2.94s CPU      3.05s WALL (    7936 calls)

     PWSCF        :    15.64s CPU        16.06s WALL


   This run was terminated on:  22:11:36   4Oct2016            

=------------------------------------------------------------------------------=
   JOB DONE.
=------------------------------------------------------------------------------=
