
     Program PHONON v.5.0.2 (svn rev. 9392) starts on 27Aug2016 at  1: 3:30 

     This program is part of the open-source Quantum ESPRESSO suite
     for quantum simulation of materials; please cite
         "P. Giannozzi et al., J. Phys.:Condens. Matter 21 395502 (2009);
          URL http://www.quantum-espresso.org", 
     in publications or presentations arising from this work. More details at
     http://www.quantum-espresso.org/quote.php

     Parallel version (MPI), running on     7 processors
     R & G space division:  proc/nbgrp/npool/nimage =       7

     Ultrasoft (Vanderbilt) Pseudopotentials

   Info: using nr1, nr2, nr3 values from input

   Info: using nr1s, nr2s, nr3s values from input

     IMPORTANT: XC functional enforced from input :
     Exchange-correlation      =  SLA  PW   PSX  PSC ( 1 410 8 0)
     EXX-fraction              =        0.00
     Any further DFT definition will be discarded
     Please, verify this is what you really want

 
     Parallelization info
     --------------------
     sticks:   dense  smooth     PW     G-vecs:    dense   smooth      PW
     Min         222      89     28                11621     2919     518
     Max         223      90     29                11625     2939     523
     Sum        1555     625    199                81361    20507    3639
 

     Check: negative/imaginary core charge=   -0.000011    0.000000
      Phonon calculation with LDA+U.
      Please cite:
      A. Floris, S. de Gironcoli, E. K. U. Gross, M. Cococcioni, PRB 84, 161102(R) (2011)
      in publications or presentations arising from this work.
 
      LDA+U parameters:
      U( 1)     =  8.92880000

     Calculation of q =    0.0000000   0.0000000   0.0000000

                                                                                

     bravais-lattice index     =            0
     lattice parameter (alat)  =       5.6565  a.u.
     unit-cell volume          =     212.6815 (a.u.)^3
     number of atoms/cell      =            4
     number of atomic types    =            3
     kinetic-energy cut-off    =      80.0000  Ry
     charge density cut-off    =     800.0000  Ry
     convergence threshold     =      1.0E-14
     beta                      =       0.7000
     number of iterations used =            4
     Exchange-correlation      =  SLA  PW   PSX  PSC ( 1 410 8 0)
     EXX-fraction              =        0.00


     celldm(1)=    5.65650  celldm(2)=    0.00000  celldm(3)=    0.00000
     celldm(4)=    0.00000  celldm(5)=    0.00000  celldm(6)=    0.00000

     crystal axes: (cart. coord. in units of alat)
               a(1) = (  0.4697  0.8136  0.0015 )  
               a(2) = ( -0.4697  0.8136  0.0016 )  
               a(3) = (  0.0000  0.5394  1.5385 )  

     reciprocal axes: (cart. coord. in units 2 pi/alat)
               b(1) = (  1.0644  0.6150 -0.2156 )  
               b(2) = ( -1.0644  0.6150 -0.2156 )  
               b(3) = (  0.0000 -0.0012  0.6504 )  


     Atoms inside the unit cell: 

   Cartesian axes

     site n.  atom      mass           positions (alat units)
        1        Co  58.9332   tau( 1) = (    0.00001   -0.00001   -0.00000  )
        2        Li   6.9400   tau( 2) = (    0.00005    1.08326    0.77079  )
        3        O   15.9990   tau( 3) = (    0.00001    0.54176    0.33477  )
        4        O   15.9990   tau( 4) = (    0.00000    1.62484    1.20680  )

     Computing dynamical matrix for 
                    q = (   0.0000000   0.0000000   0.0000000 )
 
      2 Sym.Ops. (with q -> -q+G )


     G cutoff =  648.3744  (  11621 G-vectors)     FFT grid: ( 48, 48, 90)
     G cutoff =  259.3497  (   2933 G-vectors)  smooth grid: ( 32, 32, 54)
     number of k points=   196

     PseudoPot. # 1 for Co read from file:
     ./co_pbesol_v1.2.uspp.F.UPF
     MD5 check sum: 6a2a1ac38ec1bf33db6173a72f565969
     Pseudo is Ultrasoft + core correction, Zval = 17.0
     Generated by new atomic code, or converted to UPF format
     Using radial grid of  863 points,  6 beta functions with: 
                l(1) =   0
                l(2) =   0
                l(3) =   1
                l(4) =   1
                l(5) =   2
                l(6) =   2
     Q(r) pseudized with  8 coefficients,  rinner =    1.200   1.200   1.200
                                                       1.200   1.200

     PseudoPot. # 2 for  O read from file:
     ./O.pbesol-n-rrkjus_psl.0.1.UPF
     MD5 check sum: 3527a81601fe93201c461da8a030158b
     Pseudo is Ultrasoft + core correction, Zval =  6.0
     Generated using "atomic" code by A. Dal Corso  v.5.0.99 svn rev. 10869
     Using radial grid of 1095 points,  4 beta functions with: 
                l(1) =   0
                l(2) =   0
                l(3) =   1
                l(4) =   1
     Q(r) pseudized with 0 coefficients 


     PseudoPot. # 3 for Li read from file:
     ./li_pbesol_v1.4.uspp.F.UPF
     MD5 check sum: ff95250607c0ce4f12d5ba901d5b4696
     Pseudo is Ultrasoft, Zval =  3.0
     Generated by new atomic code, or converted to UPF format
     Using radial grid of  751 points,  5 beta functions with: 
                l(1) =   0
                l(2) =   0
                l(3) =   0
                l(4) =   1
                l(5) =   1
     Q(r) pseudized with 10 coefficients,  rinner =    1.150   1.150   1.150



     Electric field:
     Dielectric constant
     Born effective charges as d Force / d E


     Atomic displacements:
     There are  12 irreducible representations

     Representation     1      1 modes -A  To be done

     Representation     2      1 modes -A  To be done

     Representation     3      1 modes -A  To be done

     Representation     4      1 modes -A  To be done

     Representation     5      1 modes -A  To be done

     Representation     6      1 modes -A  To be done

     Representation     7      1 modes -A  To be done

     Representation     8      1 modes -A  To be done

     Representation     9      1 modes -A  To be done

     Representation    10      1 modes -A  To be done

     Representation    11      1 modes -A  To be done

     Representation    12      1 modes -A  To be done


 openfilq exst elph F F
 openfilq dnsscf_all_modes NOT ALLOCATED
 openfilq after openfilq
 initialize_ph exit from openfilq
 enter phq_init 
 phq_init before deallocate aux1
 phq_init aux1 ALLOCATED
 phq_init aux1 ALLOCATED
 phq_init aux1 ALLOCATED
 phq_init aux1 ALLOCATED
 phq_init aux1 ALLOCATED
 phq_init aux1 ALLOCATED
 phq_init aux1 ALLOCATED
 phq_init after deallocate aux1
drho dyn00
   1   1
 -64.3027685   0.0000000  -0.0000068   0.0000000  -0.0000950   0.0000000
  -0.0000068   0.0000000 -64.3027551   0.0000000   0.0061098   0.0000000
  -0.0000950   0.0000000   0.0061098   0.0000000 -67.5083478   0.0000000
   1   2
   0.0116949   0.0000000   0.0000010   0.0000000   0.0000081   0.0000000
   0.0000010   0.0000000   0.0116899   0.0000000  -0.0005623   0.0000000
   0.0000071   0.0000000  -0.0005649   0.0000000   0.3055242   0.0000000
   1   3
   0.8642225   0.0000000   0.0000045   0.0000000  -0.0000267   0.0000000
   0.0000045   0.0000000   0.8641976   0.0000000   0.0020360   0.0000000
  -0.0000289   0.0000000   0.0020333   0.0000000  -0.1965007   0.0000000
   1   4
   0.8642206   0.0000000   0.0000065   0.0000000  -0.0000275   0.0000000
   0.0000065   0.0000000   0.8641997   0.0000000   0.0020367   0.0000000
  -0.0000278   0.0000000   0.0020322   0.0000000  -0.1965008   0.0000000
   2   1
   0.0116949   0.0000000   0.0000010   0.0000000   0.0000071   0.0000000
   0.0000010   0.0000000   0.0116899   0.0000000  -0.0005649   0.0000000
   0.0000081   0.0000000  -0.0005623   0.0000000   0.3055242   0.0000000
   2   2
  -0.0424816   0.0000000   0.0000015   0.0000000  -0.0000012   0.0000000
   0.0000015   0.0000000  -0.0424871   0.0000000  -0.0000266   0.0000000
  -0.0000012   0.0000000  -0.0000266   0.0000000  -0.0308329   0.0000000
   2   3
   0.0554346   0.0000000   0.0000124   0.0000000  -0.0000068   0.0000000
   0.0000124   0.0000000   0.0554894   0.0000000  -0.0002115   0.0000000
  -0.0000062   0.0000000  -0.0002134   0.0000000   0.1787128   0.0000000
   2   4
   0.0554676   0.0000000  -0.0000199   0.0000000   0.0000207   0.0000000
  -0.0000199   0.0000000   0.0554565   0.0000000  -0.0002398   0.0000000
   0.0000195   0.0000000  -0.0002398   0.0000000   0.1787126   0.0000000
   3   1
   0.8642225   0.0000000   0.0000045   0.0000000  -0.0000289   0.0000000
   0.0000045   0.0000000   0.8641976   0.0000000   0.0020333   0.0000000
  -0.0000267   0.0000000   0.0020360   0.0000000  -0.1965007   0.0000000
   3   2
   0.0554346   0.0000000   0.0000124   0.0000000  -0.0000062   0.0000000
   0.0000124   0.0000000   0.0554894   0.0000000  -0.0002134   0.0000000
  -0.0000068   0.0000000  -0.0002115   0.0000000   0.1787128   0.0000000
   3   3
  -4.6059908   0.0000000  -0.0000078   0.0000000  -0.0000166   0.0000000
  -0.0000078   0.0000000  -4.6060306   0.0000000   0.0020932   0.0000000
  -0.0000166   0.0000000   0.0020932   0.0000000  -5.7098120   0.0000000
   3   4
   0.0642159   0.0000000   0.0000008   0.0000000   0.0000208   0.0000000
   0.0000008   0.0000000   0.0642130   0.0000000  -0.0015942   0.0000000
   0.0000235   0.0000000  -0.0015969   0.0000000   0.8974971   0.0000000
   4   1
   0.8642206   0.0000000   0.0000065   0.0000000  -0.0000278   0.0000000
   0.0000065   0.0000000   0.8641997   0.0000000   0.0020322   0.0000000
  -0.0000275   0.0000000   0.0020367   0.0000000  -0.1965008   0.0000000
   4   2
   0.0554676   0.0000000  -0.0000199   0.0000000   0.0000195   0.0000000
  -0.0000199   0.0000000   0.0554565   0.0000000  -0.0002398   0.0000000
   0.0000207   0.0000000  -0.0002398   0.0000000   0.1787126   0.0000000
   4   3
   0.0642159   0.0000000   0.0000008   0.0000000   0.0000235   0.0000000
   0.0000008   0.0000000   0.0642130   0.0000000  -0.0015969   0.0000000
   0.0000208   0.0000000  -0.0015942   0.0000000   0.8974971   0.0000000
   4   4
  -4.6060110   0.0000000   0.0000121   0.0000000  -0.0000465   0.0000000
   0.0000121   0.0000000  -4.6060103   0.0000000   0.0021239   0.0000000
  -0.0000465   0.0000000   0.0021239   0.0000000  -5.7098118   0.0000000
 phq_init before sfiatph
 write calculated tab_at from init_at_1  0.894307490756349     
  0.894282582844129       0.894207864344851       0.894083350968315     
  0.893909068889719       0.893685054737966       0.893411355579305     
  0.893088028896312       0.892715142562249       0.892292774810788     
  0.891821014201171       0.891299959578768       0.890729720031131     
  0.890110414839531       0.889442173426037       0.888725135296172     
  0.887959449977185       0.887145276952012       0.886282785588926     
  0.885372155066988       0.884413574297322       0.883407241840268     
  0.882353365818513       0.881252163826221       0.880103862834262     
  0.878908699091604       0.877666918022930       0.876378774122581     
  0.875044530844870       0.873664460490891       0.872238844091863     
  0.870767971289134       0.869252140210904       0.867691657345770     
  0.866086837413190       0.864438003230949       0.862745485579727     
  0.861009623064869       0.859230761975449       0.857409256140741     
  0.855545466784178       0.853639762374921       0.851692518477131     
  0.849704117597055       0.847674949028018       0.845605408693446     
  0.843495898988014       0.841346828617028       0.839158612434153     
  0.836931671277585       0.834666431804791       0.832363326325912     
  0.830022792635938       0.827645273845772       0.825231218212281     
  0.822781078967446       0.820295314146722       0.817774386416701     
  0.815218762902204       0.812628915012887       0.810005318269480     
  0.807348452129757       0.804658799814337       0.801936848132421     
  0.799183087307569       0.796398010803605       0.793582115150762     
  0.790735899772148       0.787859866810646       0.784954520956326     
  0.782020369274463       0.779057921034267       0.776067687538392     
  0.773050181953326       0.770005919140736       0.766935415489868     
  0.763839188751063       0.760717757870481       0.757571642826111     
  0.754401364465132       0.751207444342714       0.747990404562314     
  0.744750767617548       0.741489056235698       0.738205793222929     
  0.734901501311266       0.731576703007392       0.728231920443348     
  0.724867675229155       0.721484488307440       0.718082879810102     
  0.714663368917079       0.711226473717244       0.707772711071502     
  0.704302596478098       0.700816643940209       0.697315365835827     
  0.693799272789989       0.690268873549386       0.686724674859366     
  0.683167181343377       0.679596895384871       0.676014317011691     
  0.672419943782959       0.668814270678503       0.665197789990819     
  0.661570991219595       0.657934360968815       0.654288382846445     
  0.650633537366715       0.646970301855007       0.643299150355358     
  0.639620553540567       0.635934978624927       0.632242889279574     
  0.628544745550451       0.624841003778878       0.621132116524747     
  0.617418532492303       0.613700696458526       0.609979049204098     
  0.606254027446946       0.602526063778342       0.598795586601548     
  0.595063020073002       0.591328784046016       0.587593294016962     
  0.583856961073958       0.580120191847985       0.576383388466466     
  0.572646948509241       0.568911264966942       0.565176726201727     
  0.561443715910362       0.557712613089608       0.553983792003896     
  0.550257622155263       0.546534468255513       0.542814690200574     
  0.539098643047025       0.535386676990762       0.531679137347761     
  0.527976364536918       0.524278694064926       0.520586456513156     
  0.516899977526510       0.513219577804207       0.509545573092478     
  0.505878274179112       0.502217986889852       0.498565012086567     
  0.494919645667195       0.491282178567400       0.487652896763921     
  0.484032081279562       0.480420008189799       0.476816948630962     
  0.473223168809950       0.469638930015456       0.466064488630643     
  0.462500096147262       0.458945999181143       0.455402439489057     
  0.451869653986881       0.448347874769048       0.444837329129243     
  0.441338239582298       0.437850823887270       0.434375295071641     
  0.430911861456631       0.427460726683562       0.424022089741263     
  0.420596144994461       0.417183082213139       0.413783086602812     
  0.410396338835701       0.407023015082766       0.403663287046559     
  0.400317321994875       0.396985282795161       0.393667327949658     
  0.390363611631229       0.387074283719871       0.383799489839842     
  0.380539371397412       0.377294065619178       0.374063705590928     
  0.370848420297025       0.367648334660278       0.364463569582278     
  0.361294241984159       0.358140464847781       0.355002347257279     
  0.351879994440977       0.348773507813624       0.345682985018948     
  0.342608519972471       0.339550202904595       0.336508120403922     
  0.333482355460768       0.330472987510889       0.327480092479348     
  0.324503742824549       0.321544007582376       0.318600952410452     
  0.315674639632465       0.312765128282574       0.309872474149851     
  0.306996729822748       0.304137944733583       0.301296165203009     
  0.298471434484459       0.295663792808551       0.292873277427438     
  0.290099922659080       0.287343759931426       0.284604817826500     
  0.281883122124366       0.279178695846961       0.276491559301787     
  0.273821730125442       0.271169223326990       0.268534051331135     
  0.265916224021223       0.263315748782017       0.260732630542279     
  0.258166871817109       0.255618472750063       0.253087431155018     
  0.250573742557788       0.248077400237474       0.245598395267546     
  0.243136716556647       0.240692350889110       0.238265282965174     
  0.235855495440913       0.233462968967847       0.231087682232239     
  0.228729611994082       0.226388733125748       0.224065018650315     
  0.221758439779555       0.219468965951578       0.217196564868139     
  0.214941202531586       0.212702843281460       0.210481449830738     
  0.208276983301714       0.206089403261515       0.203918667757253     
  0.201764733350808       0.199627555153236       0.197507086858805     
  0.195403280778658       0.193316087874092       0.191245457789464     
  0.189191338884715       0.187153678267507       0.185132421824987     
  0.183127514255162       0.181138899097886       0.179166518765474     
  0.177210314572922       0.175270226767747       0.173346194559438     
  0.171438156148533       0.169546048755299       0.167669808648040     
  0.165809371171016       0.163964670771985       0.162135641029359     
  0.160322214678988       0.158524323640558       0.156741899043618     
  0.154974871253229       0.153223169895239       0.151486723881188     
  0.149765461432839       0.148059310106346       0.146368196816049     
  0.144692047857910       0.143030788932583       0.141384345168125     
  0.139752641142351       0.138135600904833       0.136533147998541     
  0.134945205481141       0.133371695945940       0.131812541542488     
  0.130267663996836       0.128736984631456       0.127220424384819     
  0.125717903830646       0.124229343196822       0.122754662383983     
  0.121293780983778       0.119846618296810       0.118413093350251     
  0.116993124915148       0.115586631523415       0.114193531484506     
  0.112813742901792       0.111447183688628       0.110093771584120     
  0.108753424168593       0.107426058878768       0.106111593022647     
  0.104809943794104       0.103521028287202       0.102244763510219     
  0.100981066399398       9.972985383242813E-002  9.849104264164461E-002
  9.726454962696694E-002  9.605029156856881E-002  9.484818523928769E-002
  9.365814741677399E-002  9.248009489538685E-002  9.131394449783523E-002
  9.015961308657272E-002  8.901701757494372E-002  8.788607493809042E-002
  8.676670222361685E-002  8.565881656201993E-002  8.456233517688540E-002
  8.347717539485554E-002  8.240325465536889E-002  8.134049052017826E-002
  8.028880068264609E-002  7.924810297682494E-002  7.821831538632250E-002
  7.719935605295526E-002  7.619114328519579E-002  7.519359556641304E-002
  7.420663156291238E-002  7.323017013177550E-002  7.226413032850518E-002
  7.130843141447589E-002  7.036299286419623E-002  6.942773437238185E-002
  6.850257586084556E-002  6.758743748520533E-002  6.668223964141422E-002
  6.578690297211395E-002  6.490134837281525E-002  6.402549699790884E-002
  6.315927026650757E-002  6.230258986812454E-002  6.145537776818916E-002
  6.061755621340307E-002  5.978904773693960E-002  5.896977516348831E-002
  5.815966161414893E-002  5.735863051117483E-002  5.656660558257057E-002
  5.578351086654530E-002  5.500927071582382E-002  5.424380980181897E-002
  5.348705311866704E-002  5.273892598712821E-002  5.199935405835529E-002
  5.126826331753303E-002  5.054558008738845E-002  4.983123103157773E-002
  4.912514315794871E-002  4.842724382168343E-002  4.773746072832147E-002
  4.705572193666728E-002  4.638195586158298E-002  4.571609127666892E-002
  4.505805731683414E-002  4.440778348075919E-002  4.376519963325185E-002
  4.313023600750000E-002  4.250282320722139E-002  4.188289220871407E-002
  4.127037436280821E-002  4.066520139672139E-002  4.006730541581978E-002
  3.947661890528670E-002  3.889307473170020E-002  3.831660614452159E-002
  3.774714677749689E-002  3.718463064997257E-002  3.662899216812787E-002
  3.608016612612409E-002  3.553808770717497E-002  3.500269248453672E-002
  3.447391642242156E-002  3.395169587683575E-002  3.343596759634342E-002
  3.292666872275773E-002  3.242373679176145E-002  3.192710973345758E-002
  3.143672587285278E-002  3.095252393027292E-002  3.047444302171505E-002
  3.000242265913448E-002  2.953640275067012E-002  2.907632360080881E-002
  2.862212591048967E-002  2.817375077715057E-002  2.773113969471754E-002
  2.729423455353828E-002  2.686297764026103E-002  2.643731163766104E-002
  2.601717962441381E-002  2.560252507481880E-002  2.519329185847230E-002
  2.478942423989289E-002  2.439086687809886E-002  2.399756482613954E-002
  2.360946353058192E-002  2.322650883095272E-002  2.284864695913768E-002
  2.247582453873918E-002  2.210798858439252E-002  2.174508650104295E-002
  2.138706608318290E-002  2.103387551405220E-002  2.068546336480105E-002
  2.034177859361676E-002  2.000277054481557E-002  1.966838894790050E-002
  1.933858391658577E-002  1.901330594778854E-002  1.869250592058977E-002
  1.837613509516395E-002  1.806414511167899E-002  1.775648798916723E-002
  1.745311612436824E-002  1.715398229054418E-002  1.685903963626830E-002
  1.656824168418788E-002  1.628154232976177E-002  1.599889583997363E-002
  1.572025685202135E-002  1.544558037198390E-002  1.517482177346514E-002
  1.490793679621663E-002  1.464488154473952E-002  1.438561248686562E-002
  1.413008645231942E-002  1.387826063126064E-002  1.363009257280858E-002
  1.338554018354899E-002  1.314456172602299E-002  1.290711581720017E-002
  1.267316142693513E-002  1.244265787640901E-002  1.221556483655548E-002
  1.199184232647297E-002  1.177145071182281E-002  1.155435070321383E-002
  1.134050335457459E-002  1.112987006151281E-002  1.092241255966350E-002
  1.071809292302529E-002  1.051687356228595E-002  1.031871722313784E-002
  1.012358698458307E-002  9.931446257229202E-003  9.742258781575966E-003
  9.555988626293189E-003  9.372600186490563E-003  9.192058181979684E-003
  9.014327655528386E-003  8.839373971108289E-003  8.667162812135523E-003
  8.497660179705343E-003  8.330832390820631E-003  8.166646076615000E-003
  8.005068180570512E-003  7.846065956730966E-003  7.689606967910069E-003
  7.535659083895857E-003  7.384190479651092E-003  7.235169633510166E-003
  7.088565325372846E-003  6.944346634894741E-003  6.802482939675629E-003
  6.662943913445153E-003  6.525699524246361E-003  6.390720032617789E-003
  6.257975989773768E-003  6.127438235783601E-003  5.999077897749733E-003
  5.872866387985163E-003  5.748775402190415E-003  5.626776917630375E-003
  5.506843191310857E-003  5.388946758155658E-003  5.273060429183958E-003
  5.159157289688479E-003  5.047210697414364E-003  4.937194280739510E-003
  4.829081936855765E-003  4.722847829952003E-003  4.618466389398826E-003
  4.515912307935030E-003  4.415160539856482E-003  4.316186299206806E-003
  4.218965057971057E-003  4.123472544271598E-003  4.029684740567110E-003
  3.937577881854237E-003  3.847128453872736E-003  3.758313191313633E-003
  3.671109076030981E-003  3.585493335257000E-003  3.501443439821419E-003
  3.418937102374167E-003  3.337952275612344E-003  3.258467150511475E-003
  3.180460154560861E-003  3.103909950003292E-003  3.028795432079633E-003
  2.955095727277760E-003  2.882790191586368E-003  2.811858408753829E-003
  2.742280188551864E-003  2.674035565044484E-003  2.607104794862038E-003
  2.541468355480794E-003  2.477106943507649E-003  2.414001472970797E-003
  2.352133073615503E-003  2.291483089206149E-003  2.232033075833572E-003
  2.173764800228793E-003  2.116660238082247E-003  2.060701572369482E-003
  2.005871191682682E-003  1.952151688568765E-003  1.899525857873277E-003
  1.847976695091189E-003  1.797487394723732E-003  1.748041348641942E-003
  1.699622144456704E-003  1.652213563895389E-003  1.605799581185257E-003
  1.560364361443661E-003  1.515892259074816E-003  1.472367816173678E-003
  1.429775760936798E-003  1.388101006079690E-003  1.347328647261857E-003
  1.307443961518272E-003  1.268432405698543E-003  1.230279614912612E-003
  1.192971400984267E-003  1.156493750911399E-003  1.120832825333891E-003
  1.085974957008547E-003  1.051906649291571E-003  1.018614574628311E-003
  9.860855730504370E-004  9.543066506806754E-004  9.232649782448385E-004
  8.929478895915046E-004  8.633428802191198E-004  8.344376058108358E-004
  8.062198807766422E-004  7.786776768034086E-004  7.517991214123896E-004
  7.255724965243432E-004  6.999862370324854E-004  6.750289293829236E-004
  6.506893101628699E-004  6.269562646967231E-004  6.038188256496028E-004
  5.812661716389085E-004  5.592876258533517E-004  5.378726546800763E-004
  5.170108663392056E-004  4.966920095265002E-004  4.769059720636293E-004
  4.576427795562386E-004  4.388925940599181E-004  4.206457127539661E-004
  4.028925666229269E-004  3.856237191459115E-004  3.688298649939073E-004
  3.525018287347334E-004  3.366305635459777E-004  3.212071499355789E-004
  3.062227944704825E-004  2.916688285128503E-004  2.775367069643493E-004
  2.638180070180676E-004  2.505044269183543E-004  2.375877847284362E-004
  2.250600171057966E-004  2.129131780856075E-004  2.011394378714044E-004
  1.897310816342891E-004  1.786805083192788E-004  1.679802294597542E-004
  1.576228679996115E-004  1.476011571231754E-004  1.379079390927600E-004
  1.285361640941096E-004  1.194788890894809E-004  1.107292766784478E-004
  1.022805939663876E-004  9.412621144066050E-005  8.625960185460740E-005
  7.867433911881048E-005  7.136409720059473E-005  6.432264903053904E-005
  5.754386541708796E-005  5.102171396845889E-005  4.475025802222843E-005
  3.872365558269679E-005  3.293615826528334E-005  2.738211024910550E-005
  2.205594723651314E-005  1.695219542047540E-005  1.206547045928335E-005
  7.390476458782780E-006  2.922004961992413E-006 -1.345066053794631E-006
 -5.415773172533164E-006 -9.295068527596988E-006 -1.298782078257959E-005
 -1.649881610460867E-005 -1.983275913064320E-005 -2.299427392614159E-005
 -2.598790493665793E-005 -2.881811793215851E-005 -3.148930094403676E-005
 -3.400576519494423E-005 -3.637174602148486E-005 -3.859140378964789E-005
 -4.066882480316201E-005 -4.260802220480814E-005 -4.441293687040726E-005
 -4.608743829594305E-005 -4.763532547768141E-005 -4.906032778492801E-005
 -5.036610582622347E-005 -5.155625230830804E-005 -5.263429288810855E-005
 -5.360368701798629E-005 -5.446782878395046E-005 -5.523004773703410E-005
 -5.589360971782238E-005 -5.646171767418192E-005 -5.693751247215518E-005
 -5.732407370011561E-005 -5.762442046621023E-005 -5.784151218900538E-005
 -5.797824938154567E-005 -5.803747442861954E-005 -5.802197235761596E-005
 -5.793447160244686E-005 -5.777764476121356E-005 -5.755410934713626E-005
 -5.726642853302102E-005 -5.691711188920581E-005 -5.650861611497782E-005
 -5.604334576380817E-005 -5.552365396179395E-005 -5.495184312000719E-005
 -5.433016564035529E-005 -5.366082461521549E-005 -5.294597452059531E-005
 -5.218772190327862E-005 -5.138812606140924E-005 -5.054919971918947E-005
 -4.967290969519043E-005 -4.876117756452920E-005 -4.781588031498804E-005
 -4.683885099699836E-005 -4.583187936754208E-005 -4.479671252807319E-005
 -4.373505555627390E-005 -4.264857213214448E-005 -4.153888515771966E-005
 -4.040757737129878E-005 -3.925619195542547E-005 -3.808623313917835E-005
 -3.689916679468064E-005 -3.569642102765240E-005 -3.447938676235356E-005
 -3.324941832060739E-005 -3.200783399523787E-005 -3.075591661783038E-005
 -2.949491412075404E-005 -2.822604009364619E-005 -2.695047433417731E-005
 -2.566936339343702E-005 -2.438382111564862E-005 -2.309492917238181E-005
 -2.180373759135034E-005 -2.051126527982230E-005 -1.921850054235561E-005
 -1.792640159349800E-005 -1.663589706494341E-005 -1.534788650727337E-005
 -1.406324088666264E-005 -1.278280307609277E-005 -1.150738834146429E-005
 -1.023778482243699E-005 -8.974754008117840E-006 -7.719031207656432E-006
 -6.471326015640259E-006 -5.232322772476824E-006 -4.002681019672118E-006
 -2.783035950165636E-006 -1.573998853592195E-006 -3.761575565925784E-007
  8.099231417369862E-007  1.983701039333716E-006  3.144656105587816E-006
  4.292290060531336E-006  5.426125958805105E-006  6.545707778531097E-006
  7.650600014775230E-006  8.740387277888264E-006  9.814673896432838E-006
  1.087308352474192E-005  1.191525875523852E-005  1.294086073519636E-005
  1.394956878826858E-005  1.494108004027136E-005  1.591510904975856E-005
  1.687138744290315E-005  1.780966355293762E-005  1.872970206386407E-005
  1.963128365869540E-005  2.051420467202275E-005  2.137827674685462E-005
  2.222332649581563E-005  2.304919516656969E-005  2.385573831156087E-005
  2.464282546183065E-005  2.541033980519113E-005  2.615817786835016E-005
  2.688624920336397E-005  2.759447607796392E-005  2.828279317022819E-005
  2.895114726693825E-005  2.959949696624875E-005  3.022781238415885E-005
  3.083607486494066E-005  3.142427669563853E-005  3.199242082419128E-005
  3.254052058163192E-005  3.306859940805215E-005  3.357669058229278E-005
  3.406483695558756E-005  3.453309068868336E-005  3.498151299289852E-005
  3.541017387482517E-005  3.581915188453201E-005  3.620853386766112E-005
  3.657841472087989E-005  3.692889715098666E-005  3.726009143761436E-005
  3.757211519940320E-005  3.786509316363758E-005  3.813915693936442E-005
  3.839444479394324E-005  3.863110143297944E-005  3.884927778362703E-005
  3.904913078128183E-005  3.923082315956173E-005  3.939452324349645E-005
  3.954040474613704E-005  3.966864656825403E-005  3.977943260136272E-005
  3.987295153378215E-005  3.994939665998695E-005  4.000896569302778E-005
  4.005186057994531E-005  4.007828732046792E-005  4.008845578853666E-005
  4.008257955698662E-005  4.006087572513880E-005  4.002356474938548E-005
  3.997087027667823E-005  3.990301898094771E-005  3.982024040245294E-005
  3.972276678982666E-005  3.961083294507027E-005  3.948467607140028E-005
  3.934453562369822E-005  3.919065316186220E-005  3.902327220672303E-005
  3.884263809888085E-005  3.864899785993575E-005  3.844260005660688E-005
  3.822369466727127E-005  3.799253295124562E-005  3.774936732053517E-005
  3.749445121418217E-005  3.722803897501260E-005  3.695038572909274E-005
  3.666174726742121E-005  3.636237993012743E-005  3.605254049319248E-005
  3.573248605739637E-005  3.540247393972706E-005  3.506276156710166E-005
  3.471360637238178E-005  3.435526569272497E-005  3.398799667013311E-005
  3.361205615428097E-005  3.322770060756100E-005  3.283518601233570E-005
  3.243476778029742E-005  3.202670066398300E-005  3.161123867048899E-005
  3.118863497718905E-005  3.075914184955673E-005  3.032301056100003E-005
  2.988049131486236E-005  2.943183316815599E-005  2.897728395754822E-005
  2.851709022715557E-005  2.805149715829476E-005  2.758074850112534E-005
  2.710508650822568E-005  2.662475187001054E-005  2.613998365193675E-005
  2.565101923361183E-005  2.515809424966836E-005  2.466144253229319E-005
  2.416129605580403E-005  2.365788488255747E-005  2.315143711095052E-005
  2.264217882475143E-005  2.213033404442216E-005  2.161612467985442E-005
  2.109977048477412E-005  2.058148901284380E-005  2.006149557519694E-005
  1.954000319962423E-005  1.901722259129083E-005  1.849336209491922E-005
  1.796862765847974E-005  1.744322279839172E-005  1.691734856617708E-005
  1.639120351642077E-005  1.586498367632729E-005  1.533888251657710E-005
  1.481309092348666E-005  1.428779717267071E-005  1.376318690391874E-005
  1.323944309740514E-005  1.271674605121052E-005  1.219527336012512E-005
  1.167519989568477E-005  1.115669778740929E-005  1.063993640533282E-005
  1.012508234367028E-005  9.612299405671177E-006  9.101748589605493E-006
  8.593588075998521E-006  8.087973215831009E-006  7.585056519919097E-006
  7.084987649450855E-006  6.587913407426269E-006  6.093977731249867E-006
  5.603321686403250E-006  5.116083460976276E-006  4.632398361299218E-006
  4.152398808588718E-006  3.676214336422672E-006  3.203971589251472E-006
  2.735794321859548E-006  2.271803399619605E-006  1.812116799766433E-006
  1.356849613457636E-006  9.061140486997235E-007  4.600194342414460E-007
  1.867222405205129E-008 -4.178239971367188E-007 -8.493685076866541E-007
 -1.275863442012378E-006 -1.697213782855664E-006 -2.113327352719400E-006
 -2.524114804728614E-006 -2.929489612591298E-006 -3.329368059979841E-006
 -3.723669229219713E-006 -4.112314989260044E-006 -4.495229983019966E-006
 -4.872341614101625E-006 -5.243580032851512E-006 -5.608878121815561E-006
 -5.968171480659200E-006 -6.321398410422866E-006 -6.668499897202479E-006
 -7.009419595416075E-006 -7.344103810336638E-006 -7.672501480241470E-006
  0.000000000000000E+000  4.251384644177212E-003  8.501857631355076E-003
  1.275050775183679E-002  1.699642469012025E-002  2.123869947097462E-002
  2.547642490428986E-002  2.970869602829505E-002  3.393461055074465E-002
  3.815326928767016E-002  4.236377659929950E-002  4.656524082275613E-002
  5.075677470114482E-002  5.493749580864720E-002  5.910652697124682E-002
  6.326299668271407E-002  6.740603951549240E-002  7.153479652612221E-002
  7.564841565486383E-002  7.974605211917099E-002  8.382686880069379E-002
  8.789003662548188E-002  9.193473493708261E-002  9.596015186222816E-002
  9.996548466882486E-002  0.103949940115962       0.107912734795672     
  0.111853095466187       0.115770259376444       0.119663474581603     
  0.123532000249364       0.127375106956868       0.131192076977991     
  0.134982204560839       0.138744796195288       0.142479170870398     
  0.146184660321572       0.149860609267309       0.153506375635460     
  0.157121330778859       0.160704859680256       0.164256361146463     
  0.167775247991660       0.171260947209795       0.174712900136065     
  0.178130562597422       0.181513405052118       0.184860912718280     
  0.188172585691522       0.191447939051635       0.194686502958375     
  0.197887822736411       0.201051458949494       0.204176987463903     
  0.207263999501276       0.210312101680900       0.213320916051575     
  0.216290080113156       0.219219246827914       0.222108084621835     
  0.224956277375997       0.227763524408196       0.230529540444958     
  0.233254055584118       0.235936815248136       0.238577580128333     
  0.241176126120237       0.243732244250231       0.246245740593709     
  0.248716436184940       0.251144166918865       0.253528783445019     
  0.255870151053830       0.258168149555497       0.260422673151686     
  0.262633630300266       0.264800943573339       0.266924549508778     
  0.269004398455527       0.271040454412898       0.273032694864109     
  0.274981110604311       0.276885705563327       0.278746496623381     
  0.280563513432031       0.282336798210561       0.284066405558078     
  0.285752402251552       0.287394867042036       0.288993890447319     
  0.290549574541226       0.292062032739826       0.293531389584763     
  0.294957780523944       0.296341351689817       0.297682259675463     
  0.298980671308710       0.300236763424512       0.301450722635775     
  0.302622745102875       0.303753036302048       0.304841810792864     
  0.305889291984989       0.306895711904421       0.307861310959391     
  0.308786337706114       0.309671048614580       0.310515707834538     
  0.311320586961876       0.312085964805525       0.312812127155084     
  0.313499366549300       0.314147982045555       0.314758278990520     
  0.315330568792101       0.315865168692821       0.316362401544767     
  0.316822595586228       0.317246084220145       0.317633205794483     
  0.317984303384646       0.318299724578026       0.318579821260804     
  0.318824949407081       0.319035468870442       0.319211743178030     
  0.319354139327217       0.319463027584950       0.319538781289834     
  0.319581776657023       0.319592392585992       0.319571010471234     
  0.319518014015934       0.319433789048691       0.319318723343306     
  0.319173206441692       0.318997629479949       0.318792385017615     
  0.318557866870151       0.318294469944658       0.318002590078872     
  0.317682623883437       0.317334968587486       0.316960021887527     
  0.316558181799658       0.316129846515104       0.315675414259089     
  0.315195283153030       0.314689851080068       0.314159515553905     
  0.313604673590968       0.313025721585865       0.312423055190130     
  0.311797069194244       0.311148157412906       0.310476712573543     
  0.309783126208026       0.309067788547583       0.308331088420871     
  0.307573413155183       0.306795148480762       0.305996678438197     
  0.305178385288854       0.304340649428329       0.303483849302866     
  0.302608361328728       0.301714559814460       0.300802816886027     
  0.299873502414775       0.298926983948178       0.297963626643334     
  0.296983793203165       0.295987843815282       0.294976136093464     
  0.293949025021722       0.292906862900892       0.291849999297715     
  0.290778780996372       0.289693551952402       0.288594653248992     
  0.287482423055561       0.286357196588625       0.285219306074861     
  0.284069080716361       0.282906846658001       0.281732926956898     
  0.280547641553902       0.279351307247077       0.278144237667126     
  0.276926743254718       0.275699131239673       0.274461705621949     
  0.273214767154403       0.271958613327272       0.270693538354323     
  0.269419833160658       0.268137785372085       0.266847679306057     
  0.265549795964109       0.264244413025765       0.262931804843858     
  0.261612242441245       0.260285993508856       0.258953322405047     
  0.257614490156216       0.256269754458646       0.254919369681524     
  0.253563586871120       0.252202653756070       0.250836814753730     
  0.249466310977576       0.248091380245598       0.246712257089672     
  0.245329172765849       0.243942355265565       0.242552029327698     
  0.241158416451470       0.239761734910148       0.238362199765517     
  0.236960022883094       0.235555412948046       0.234148575481802     
  0.232739712859300       0.231329024326875       0.229916706020730     
  0.228502950985983       0.227087949196258       0.225671887573785     
  0.224254950010005       0.222837317386628       0.221419167597148     
  0.220000675568767       0.218582013284719       0.217163349806977     
  0.215744851299300       0.214326681050622       0.212908999498748     
  0.211491964254341       0.210075730125184       0.208660449140692     
  0.207246270576657       0.205833340980218       0.204421804195015     
  0.203011801386542       0.201603471067656       0.200196949124233     
  0.198792368840968       0.197389860927290       0.195989553543378     
  0.194591572326274       0.193196040416069       0.191803078482157     
  0.190412804749539       0.189025335025161       0.187640782724290     
  0.186259258896895       0.184880872254040       0.183505729194268     
  0.182133933829969       0.180765588013722       0.179400791364601     
  0.178039641294438       0.176682233034028       0.175328659659277     
  0.173979012117274       0.172633379252291       0.171291847831687     
  0.169954502571734       0.168621426163327       0.167292699297597     
  0.165968400691409       0.164648607112739       0.163333393405928     
  0.162022832516805       0.160716995517671       0.159415951632150     
  0.158119768259887       0.156828511001096       0.155542243680960     
  0.154261028373868       0.152984925427485       0.151713993486668     
  0.150448289517200       0.149187868829360       0.147932785101311     
  0.146683090402314       0.145438835215757       0.144200068462005     
  0.142966837521056       0.141739188255017       0.140517165030384     
  0.139300810740131       0.138090166825609       0.136885273298241     
  0.135686168761031       0.134492890429865       0.133305474154619     
  0.132123954440066       0.130948364466578       0.129778736110630     
  0.128615099965104       0.127457485359381       0.126305920379241     
  0.125160431886548       0.124021045538741       0.122887785808118     
  0.121760676000909       0.120639738276158       0.119524993664391     
  0.118416462086085       0.117314162369932       0.116218112270904     
  0.115128328488112       0.114044826682465       0.112967621494129     
  0.111896726559781       0.110832154529673       0.109773917084489     
  0.108722024952005       0.107676487923556       0.106637314870307     
  0.105604513759323       0.104578091669454       0.103558054807020     
  0.102544408521308       0.101537157319879       0.100536304883684     
  9.954185408199484E-002  9.855380698714414E-002  9.757216488908493E-002
  9.659692830976289E-002  9.562809701730807E-002  9.466567004004425E-002
  9.370964568031917E-002  9.276002152815652E-002  9.181679447473068E-002
  9.087996072566649E-002  8.994951581416495E-002  8.902545461395692E-002
  8.810777135208479E-002  8.719645962151658E-002  8.629151239359040E-002
  8.539292203029426E-002  8.450068029637954E-002  8.361477837131281E-002
  8.273520686106459E-002  8.186195580973951E-002  8.099501471104631E-002
  8.013437251961264E-002  7.928001766214306E-002  7.843193804842420E-002
  7.759012108217705E-002  7.675455367175944E-002  7.592522224071840E-002
  7.510211273819574E-002  7.428521064918790E-002  7.347450100466076E-002
  7.266996839152189E-002  7.187159696245259E-002  7.107937044559809E-002
  7.029327215412205E-002  6.951328499562338E-002  6.873939148141700E-002
  6.797157373568398E-002  6.720981350448658E-002  6.645409216465524E-002
  6.570439073254530E-002  6.496068987266743E-002  6.422296990619100E-002
  6.349121081932448E-002  6.276539227157174E-002  6.204549360386787E-002
  6.133149384659476E-002  6.062337172747807E-002  5.992110567936738E-002
  5.922467384790161E-002  5.853405409905845E-002  5.784922402659350E-002
  5.717016095936611E-002  5.649684196855687E-002  5.582924387477562E-002
  5.516734325506332E-002  5.451111644978728E-002  5.386053956943309E-002
  5.321558850129254E-002  5.257623891605085E-002  5.194246627427274E-002
  5.131424583279020E-002  5.069155265099216E-002  5.007436159701752E-002
  4.946264735385359E-002  4.885638442534013E-002  4.825554714208086E-002
  4.766010966726363E-002  4.707004600239009E-002  4.648532999291658E-002
  4.590593533380694E-002  4.533183557499888E-002  4.476300412678441E-002
  4.419941426510631E-002  4.364103913677107E-002  4.308785176457973E-002
  4.253982505237740E-002  4.199693179002338E-002  4.145914465828198E-002
  4.092643623363505E-002  4.039877899301841E-002  3.987614531848281E-002
  3.935850750177830E-002  3.884583774886700E-002  3.833810818436172E-002
  3.783529085589312E-002  3.733735773840625E-002  3.684428073838669E-002
  3.635603169801806E-002  3.587258239927153E-002  3.539390456792794E-002
  3.491996987753385E-002  3.445074995329221E-002  3.398621637588851E-002
  3.352634068525345E-002  3.307109438426265E-002  3.262044894237483E-002
  3.217437579920821E-002  3.173284636805797E-002  3.129583203935250E-002
  3.086330418405269E-002  3.043523415699235E-002  3.001159330016211E-002
  2.959235294593668E-002  2.917748442024704E-002  2.876695904569735E-002
  2.836074814462854E-002  2.795882304212806E-002  2.756115506898714E-002
  2.716771556460693E-002  2.677847587985258E-002  2.639340737985764E-002
  2.601248144677846E-002  2.563566948249968E-002  2.526294291129132E-002
  2.489427318241861E-002  2.452963177270378E-002  2.416899018904303E-002
  2.381231997087634E-002  2.345959269261336E-002  2.311077996601393E-002
  2.276585344252555E-002  2.242478481557715E-002  2.208754582283047E-002
  2.175410824838939E-002  2.142444392496773E-002  2.109852473601640E-002
  2.077632261781006E-002  2.045780956149417E-002  2.014295761509282E-002
  1.983173888547789E-002  1.952412554030037E-002  1.922008980988352E-002
  1.891960398907966E-002  1.862264043908997E-002  1.832917158924839E-002
  1.803916993876985E-002  1.775260805846368E-002  1.746945859241212E-002
  1.718969425961485E-002  1.691328785560003E-002  1.664021225400187E-002
  1.637044040810534E-002  1.610394535235903E-002  1.584070020385581E-002
  1.558067816378187E-002  1.532385251883513E-002  1.507019664261268E-002
  1.481968399696814E-002  1.457228813333935E-002  1.432798269404619E-002
  1.408674141355985E-002  1.384853811974322E-002  1.361334673506296E-002
  1.338114127777378E-002  1.315189586307510E-002  1.292558470424062E-002
  1.270218211372098E-002  1.248166250422008E-002  1.226400038974511E-002
  1.204917038663097E-002  1.183714721453919E-002  1.162790569743176E-002
  1.142142076452024E-002  1.121766745119030E-002  1.101662089990243E-002
  1.081825636106849E-002  1.062254919390508E-002  1.042947486726366E-002
  1.023900896043779E-002  1.005112716394791E-002  9.865805280303756E-003
  9.683019224744981E-003  9.502745025960073E-003  9.324958826783920E-003
  9.149636884874312E-003  8.976755573367773E-003  8.806291381514817E-003
  8.638220915294943E-003  8.472520898012039E-003  8.309168170869565E-003
  8.148139693526995E-003  7.989412544636742E-003  7.832963922362277E-003
  7.678771144877930E-003  7.526811650850020E-003  7.377062999900196E-003
  7.229502873050784E-003  7.084109073152694E-003  6.940859525295891E-003
  6.799732277202965E-003  6.660705499605494E-003  6.523757486604314E-003
  6.388866656012870E-003  6.256011549684932E-003  6.125170833825855E-003
  5.996323299288564E-003  5.869447861853790E-003  5.744523562495151E-003
  5.621529567629052E-003  5.500445169349825E-003  5.381249785650039E-003
  5.263922960626628E-003  5.148444364672463E-003  5.034793794653878E-003
  4.922951174074491E-003  4.812896553225200E-003  4.704610109320563E-003
  4.598072146622102E-003  4.493263096548052E-003  4.390163517770552E-003
  4.288754096299703E-003  4.189015645555134E-003  4.090929106425042E-003
  3.994475547312850E-003  3.899636164171948E-003  3.806392280528115E-003
  3.714725347490345E-003  3.624616943749988E-003  3.536048775568212E-003
  3.449002676752374E-003  3.363460608620786E-003  3.279404659956887E-003
  3.196817046952146E-003  3.115680113138342E-003  3.035976329309291E-003
  2.957688293431840E-003  2.880798730547062E-003  2.805290492660600E-003
  2.731146558623563E-003  2.658350034003104E-003  2.586884150943658E-003
  2.516732268018052E-003  2.447877870069676E-003  2.380304568044916E-003
  2.313996098816637E-003  2.248936324998463E-003  2.185109234750317E-003
  2.122498941574796E-003  2.061089684105430E-003  2.000865825885964E-003
  1.941811855141504E-003  1.883912384541292E-003  1.827152150953432E-003
  1.771516015191522E-003  1.716988961753575E-003  1.663556098553037E-003
  1.611202656642269E-003  1.559913989928564E-003  1.509675574882729E-003
  1.460473010240467E-003  1.412292016696618E-003  1.365118436592446E-003
  1.318938233595906E-003  1.273737492375322E-003  1.229502418266210E-003
  1.186219336931773E-003  1.143874694016739E-003  1.102455054795080E-003
  1.061947103811303E-003  1.022337644515878E-003  9.836135988944325E-004
  9.457620070911887E-004  9.087700270265334E-004  8.726249340088979E-004
  8.373141203410907E-004  8.028250949210520E-004  7.691454828372017E-004
  7.362630249585310E-004  7.041655775194249E-004  6.728411116993525E-004
  6.422777131974985E-004  6.124635818025056E-004  5.833870309573614E-004
  5.550364873192400E-004  5.274004903150786E-004  5.004676916922268E-004
  4.742268550646129E-004  4.486668554545864E-004  4.237766788302861E-004
  3.995454216386894E-004  3.759622903346282E-004  3.530166009054706E-004
  3.306977783919075E-004  3.089953564046799E-004  2.878989766375275E-004
  2.673983883761094E-004  2.474834480034734E-004  2.281441185016446E-004
  2.093704689497648E-004  1.911526740185691E-004  1.734810134617212E-004
  1.563458716034543E-004  1.397377368231788E-004  1.236472010368308E-004
  1.080649591750482E-004  9.298180865838338E-005  7.838864886948503E-005
  6.427648062241260E-005  5.063640562914720E-005  3.745962596331910E-005
  2.473744352134532E-005  1.246125948087063E-005  6.225737569046253E-007
 -1.078701554485920E-005 -2.177581267658657E-005 -3.235202479960205E-005
 -4.252376253757379E-005 -5.229904053202601E-005 -6.168577799984099E-005
 -7.069179929273231E-005 -7.932483445869352E-005 -8.759251980534190E-005
 -9.550239846484381E-005 -1.030619209608394E-004 -1.102784457767527E-004
 -1.171592399258069E-004 -1.237114795224886E-004 -1.299422503555023E-004
 -1.358585484620749E-004 -1.414672807034872E-004 -1.467752653420021E-004
 -1.517892326188480E-004 -1.565158253333668E-004 -1.609615994232039E-004
 -1.651330245455195E-004 -1.690364846591327E-004 -1.726782786075010E-004
 -1.760646207025842E-004 -1.792016413094281E-004 -1.820953874315396E-004
 -1.847518232967695E-004 -1.871768309439762E-004 -1.893762108101249E-004
 -1.913556823179258E-004 -1.931208844639493E-004 -1.946773764070583E-004
 -1.960306380573017E-004 -1.971860706650596E-004 -1.981489974103963E-004
 -1.989246639927451E-004 -1.995182392206236E-004 -1.999348156015066E-004
 -2.001794099318863E-004 -2.002569638871243E-004 -2.001723446114914E-004
 -1.999303453080607E-004 -1.995356858284577E-004 -1.989930132624774E-004
 -1.983069025275942E-004 -1.974818569580378E-004 -1.965223088937116E-004
 -1.954326202688680E-004 -1.942170832000889E-004 -1.928799205741928E-004
 -1.914252866354698E-004 -1.898572675724880E-004 -1.881798821042685E-004
 -1.863970820659667E-004 -1.845127529937770E-004 -1.825307147093159E-004
 -1.804547219031097E-004 -1.782884647173528E-004 -1.760355693278988E-004
 -1.736995985253171E-004 -1.712840522951021E-004 -1.687923683968190E-004
 -1.662279229423392E-004 -1.635940309730348E-004 -1.608939470357834E-004
 -1.581308657579903E-004 -1.553079224212428E-004 -1.524281935339562E-004
 -1.494946974025757E-004 -1.465103947015567E-004 -1.434781890420871E-004
 -1.404009275391601E-004 -1.372814013774892E-004 -1.341223463758687E-004
 -1.309264435499005E-004 -1.276963196733719E-004 -1.244345478379526E-004
 -1.211436480111755E-004 -1.178260875929876E-004 -1.144842819703587E-004
 -1.111205950703773E-004 -1.077373399113869E-004 -1.043367791524973E-004
 -1.009211256411582E-004 -9.749254295890213E-005 -9.405314596520009E-005
 -9.060500133941221E-005 -8.715012812077144E-005 -8.369049824634743E-005
 -8.022803708710658E-005 -7.676462398183774E-005 -7.330209276906867E-005
 -6.984223231690329E-005 -6.638678705070270E-005 -6.293745747876097E-005
 -5.949590071559687E-005 -5.606373100330785E-005 -5.264252023059397E-005
 -4.923379844955012E-005 -4.583905439033140E-005 -4.245973597333528E-005
 -3.909725081938741E-005 -3.575296675736217E-005 -3.242821232961793E-005
 -2.912427729506265E-005 -2.584241312982373E-005 -2.258383352556315E-005
 -1.934971488538414E-005 -1.614119681731362E-005 -1.295938262530575E-005
 -9.805339797843576E-006 -6.680100494049604E-006 -3.584662027234062E-006
 -5.199873460132287E-007  2.512994487197581E-006  5.513387820160277E-006
  8.480329937436850E-006  1.141299058955523E-005  1.431057152487827E-005
  1.717230602395962E-005  1.999745843670720E-005  2.278532372211025E-005
  2.553522699070621E-005  2.824652304976847E-005  3.091859595117813E-005
  3.355085854207484E-005  3.614275201828638E-005  3.869374548051699E-005
  4.120333549334478E-005  4.367104564706453E-005  4.609642612230765E-005
  4.847905325760083E-005  5.081852911978042E-005  5.311448107720947E-005
  5.536656137600566E-005  5.757444671917728E-005  5.973783784860469E-005
  6.185645913007346E-005  6.393005814127049E-005  6.595840526267834E-005
  6.794129327150482E-005  6.987853693867562E-005  7.176997262869450E-005
  7.361545790270792E-005  7.541487112444235E-005  7.716811106930464E-005
  7.887509653645745E-005  8.053576596399446E-005  8.215007704716604E-005
  8.371800635969500E-005  8.523954897815538E-005  8.671471810942488E-005
  8.814354472128257E-005  8.952607717599441E-005  9.086238086709516E-005
  9.215253785924164E-005  9.339664653112746E-005  9.459482122148954E-005
  9.574719187832950E-005  9.685390371108634E-005  9.791511684599203E-005
  9.893100598452867E-005  9.990176006500152E-005  1.008275819270814E-004
  1.017086879796523E-004  1.025453078715948E-004  1.033376841657021E-004
  1.040860720157322E-004  1.047907388465101E-004  1.054519640370653E-004
  1.060700386070100E-004  1.066452649058217E-004  1.071779563053098E-004
  1.076684368951407E-004  1.081170411814078E-004  1.085241137883156E-004
  1.088900091628848E-004  1.092150912827924E-004  1.094997333671607E-004
  1.097443175905681E-004  1.099492347999910E-004  1.101148842348062E-004
  1.102416732499720E-004  1.103300170420814E-004  1.103803383786891E-004
  1.103930673303999E-004  1.103686410063137E-004  1.103075032922827E-004
  1.102101045922804E-004  1.100769015729107E-004  1.099083569107975E-004
  1.097049390431039E-004  1.094671219210522E-004  1.091953847664839E-004
  1.088902118314480E-004  1.085520921608132E-004  1.081815193579001E-004
  1.077789913530645E-004  1.073450101754346E-004  1.068800817275001E-004
  1.063847155628025E-004  1.058594246665651E-004  1.053047252393453E-004
  1.047211364836760E-004  1.041091803936012E-004  1.034693815473039E-004
  1.028022669026076E-004  1.021083655954154E-004  1.013882087411507E-004
  1.006423292391449E-004  9.987126157981093E-005  9.907554165488109E-005
  9.825570657048330E-005  9.741229446305626E-005  9.654584431823130E-005
  9.565689579250745E-005  9.474598903780776E-005  9.381366452883080E-005
  9.286046289328856E-005  9.188692474488185E-005  9.089359051909342E-005
  8.988100031178314E-005  8.884969372050932E-005  8.780020968855563E-005
  8.673308635179926E-005  8.564886088817454E-005  8.454806936988729E-005
  8.343124661827776E-005  8.229892606142197E-005  8.115163959420871E-005
  7.998991744126397E-005  7.881428802230943E-005  7.762527782013038E-005
  7.642341125127407E-005  7.520921053909831E-005  7.398319558949020E-005
  7.274588386905878E-005  7.149779028589912E-005  7.023942707275008E-005
  6.897130367268602E-005  6.769392662728179E-005  6.640779946717137E-005
  6.511342260507548E-005  6.381129323122195E-005  6.250190521114777E-005
  6.118574898593060E-005  5.986331147469513E-005  5.853507597959096E-005
  5.720152209298686E-005  5.586312560706986E-005  5.452035842569453E-005
  5.317368847856446E-005  5.182357963763920E-005  5.047049163588053E-005
  4.911487998814789E-005  4.775719591439766E-005  4.639788626508247E-005
  4.503739344873026E-005  4.367615536174459E-005  4.231460532031192E-005
  4.095317199461983E-005  3.959227934497549E-005  3.823234656025467E-005
  3.687378799841872E-005  3.551701312905207E-005  3.416242647800308E-005
  3.281042757418451E-005  0.000000000000000E+000  1.001437778728198E-004
  4.004057601767103E-004  9.002783851049618E-004  1.598917354433210E-003
  2.495144084151630E-003  3.587449120358550E-003  4.873996507189536E-003
  6.352629088141313E-003  8.020874719161146E-003  9.875953367549690E-003
  1.191478506772145E-002  1.413399870092201E-002  1.652994156315794E-002
  1.909868968214897E-002  2.183605884150540E-002  2.473761626757820E-002
  2.779869293187091E-002  3.101439641994478E-002  3.437962431553268E-002
  3.788907804710722E-002  4.153727714255116E-002  4.531857383652663E-002
  4.922716797416542E-002  5.325712215417436E-002  5.740237705403876E-002
  6.165676688000775E-002  6.601403488470851E-002  7.046784889576235E-002
  7.501181679950542E-002  7.963950192492657E-002  8.434443827417754E-002
  8.912014554755351E-002  9.396014391249791E-002  9.885796846819647E-002
  0.103807183359430       0.108801395495705       0.113834267834198     
  0.118899532187721       0.123991001521707       0.129102581707199     
  0.134228282699813       0.139362229117829       0.144498670195754     
  0.149631989092937       0.154756711540155       0.159867513810348     
  0.164959230003016       0.170026858635072       0.175065568534165     
  0.180070704033717       0.185037789472002       0.189962533000642     
  0.194840829710814       0.199668764088284       0.204442611811053     
  0.209158840905953       0.213814112282903       0.218405279667776     
  0.222929388956869       0.227383677017848       0.231765569963741     
  0.236072680928019       0.240302807370164       0.244453927942183     
  0.248524198947469       0.252511950424136       0.256415681885437     
  0.260234057750247       0.263965902496709       0.267610195572077     
  0.271166066091624       0.274632787358996       0.278009771239921     
  0.281296562420389       0.284492832579604       0.287598374506972     
  0.290613096191271       0.293537014908908       0.296370251336809     
  0.299113023714047       0.301765642074791       0.304328502573587     
  0.306802081922300       0.309186931956393       0.311483674346489     
  0.313692995469422       0.315815641451250       0.317852413392952     
  0.319804162787832       0.321671787137942       0.323456225775182     
  0.325158455891147       0.326779488778209       0.328320366282860     
  0.329782157470909       0.331165955502812       0.332472874716129     
  0.333704047910970       0.334860623833224       0.335943764849372     
  0.336954644805841       0.337894447065088       0.338764362709930     
  0.339565588907095       0.340299327420496       0.340966783264406     
  0.341569163486434       0.342107676070064       0.342583528946462     
  0.342997929105277       0.343352081794284       0.343647189797916     
  0.343884452785019       0.344065066716463       0.344190223303707     
  0.344261109509833       0.344278907085097       0.344244792129597     
  0.344159934676253       0.344025498287911       0.343842639663025     
  0.343612508245044       0.343336245831291       0.343014986177772     
  0.342649854597063       0.342241967547042       0.341792432208879     
  0.341302346053336       0.340772796394992       0.340204859934595     
  0.339599602290249       0.338958077518643       0.338281327627972     
  0.337570382084586       0.336826257315787       0.336049956211460     
  0.335242467627508       0.334404765894250       0.333537810333096     
  0.332642544784929       0.331719897153639       0.330770778968321     
  0.329796084967535       0.328796692708995       0.327773462207895     
  0.326727235606919       0.325658836880774       0.324569071577848     
  0.323458726601313       0.322328570031725       0.321179350992816     
  0.320011799561869       0.318826626725698       0.317624524382896     
  0.316406165392650       0.315172203670046       0.313923274327424     
  0.312659993860968       0.311382960381382       0.310092753887128     
  0.308789936578420       0.307475053209815       0.306148631478984     
  0.304811182448985       0.303463201001105       0.302105166315151     
  0.300737542373880       0.299360778488128       0.297975309839063     
  0.296581558033917       0.295179931671521       0.293770826913918     
  0.292354628060374       0.290931708120160       0.289502429380523     
  0.288067143966436       0.286626194388791       0.285179914077927     
  0.283728627899518       0.282272652650120       0.280812297529851     
  0.279347864589981       0.277879649153447       0.276407940206586     
  0.274933020760691       0.273455168182273       0.271974654491210     
  0.270491746626280       0.269006706677867       0.267519792087917     
  0.266031255817524       0.264541346482795       0.263050308459912     
  0.261558381960565       0.260065803079161       0.258572803813443     
  0.257079612060333       0.255586451589017       0.254093541993418     
  0.252601098626361       0.251109332517808       0.249618450279666     
  0.248128653999691       0.246640141127055       0.245153104352172     
  0.243667731483316       0.242184205322574       0.240702703543569     
  0.239223398573337       0.237746457480592       0.236272041872548     
  0.234800307802248       0.233331405688260       0.231865480248362     
  0.230402670448705       0.228943109469706       0.227486924689728     
  0.226034237687409       0.224585164263245       0.223139814480869     
  0.221698292728183       0.220260697798354       0.218827122990407     
  0.217397656228999       0.215972380202708       0.214551372520040     
  0.213134705882121       0.211722448270921       0.210314663151696     
  0.208911409688188       0.207512742969025       0.206118714243640     
  0.204729371165982       0.203344758044182       0.201964916094337     
  0.200589883696517       0.199219696651115       0.197854388433658     
  0.196493990446230       0.195138532263722       0.193788041873153     
  0.192442545904432       0.191102069850984       0.189766638278802     
  0.188436275022605       0.187111003367886       0.185790846217832     
  0.184475826244184       0.183165966021321       0.181861288142983     
  0.180561815321205       0.179267570467242       0.177978576754386     
  0.176694857662781       0.175416437006469       0.174143338943106     
  0.172875587966870       0.171613208885311       0.170356226780961     
  0.169104666958671       0.167858554879778       0.166617916084278     
  0.165382776102273       0.164153160356071       0.162929094054329     
  0.161710602079725       0.160497708871649       0.159290438305420     
  0.158088813569578       0.156892857042733       0.155702590171470     
  0.154518033350759       0.153339205808262       0.152166125493856     
  0.150998808975655       0.149837271343656       0.148681526122115     
  0.147531585191590       0.146387458721519       0.145249155114036     
  0.144116680959660       0.142990041005296       0.141869238134912     
  0.140754273363087       0.139645145841510       0.138541852878360     
  0.137444389970391       0.136352750847388       0.135266927528579     
  0.134186910390427       0.133112688245158       0.132044248429254     
  0.130981576901064       0.129924658346585       0.128873476292429     
  0.127828013224881       0.126788250713950       0.125754169541252     
  0.124725749830538       0.123702971179679       0.122685812792904     
  0.121674253612100       0.120668272446021       0.119667848096243     
  0.118672959478798       0.117683585740435       0.116699706368521     
  0.115721301293698       0.114748350984449       0.113780836532836     
  0.112818739730772       0.111862043136263       0.110910730129176     
  0.109964784956197       0.109024192764730       0.108088939625624     
  0.107159012544685       0.106234399463097       0.105315089246908     
  0.104401071665895       0.103492337362207       0.102588877809253     
  0.101690685261421       0.100797752695281       9.991007374299958E-002
  9.902764261875377E-002  9.815045403899716E-002  9.727850313748056E-002
  9.641178537595857E-002  9.555029645155053E-002  9.469403220174305E-002
  9.384298850802884E-002  9.299716119917897E-002  9.215654595513485E-002
  9.132113821248661E-002  9.049093307248150E-002  8.966592521245839E-002
  8.884610880157298E-002  8.803147742161345E-002  8.722202399365268E-002
  8.641774071121502E-002  8.561861898056101E-002  8.482464936862084E-002
  8.403582155901893E-002  8.325212431655277E-002  8.247354546039828E-002
  8.170007184622638E-002  8.093168935732280E-002  8.016838290471737E-002
  7.941013643623651E-002  7.865693295430742E-002  7.790875454225750E-002
  7.716558239877158E-002  7.642739688009469E-002  7.569417754949144E-002
  7.496590323341458E-002  7.424255208376669E-002  7.352410164559228E-002
  7.281052892948789E-002  7.210181048797978E-002  7.139792249508699E-002
  7.069884082826593E-002  7.000454115191711E-002  6.931499900162544E-002
  6.863018986831201E-002  6.795008928147932E-002  6.727467289075210E-002
  6.660391654494106E-002  6.593779636788671E-002  6.527628883038253E-002
  6.461937081751998E-002  6.396701969085020E-002  6.331921334481504E-002
  6.267593025695919E-002  6.203714953150453E-002  6.140285093593392E-002
  6.077301493030471E-002  6.014762268908655E-002  5.952665611539319E-002
  5.891009784755280E-002  5.829793125803769E-002  5.769014044484801E-002
  5.708671021551805E-002  5.648762606398285E-002  5.589287414061040E-002
  5.530244121576940E-002  5.471631463736119E-002  5.413448228279927E-002
  5.355693250596897E-002  5.298365407974458E-002  5.241463613467760E-002
  5.184986809450193E-002  5.128933960912634E-002  5.073304048580167E-002
  5.018096061916256E-002  4.963308992084669E-002  4.908941824939095E-002
  4.854993534109626E-002  4.801463074253445E-002  4.748349374534903E-002
  4.695651332397256E-002  4.643367807684774E-002  4.591497617170172E-002
  4.540039529537433E-002  4.488992260865506E-002  4.438354470652776E-002
  4.388124758416660E-002  4.338301660896565E-002  4.288883649882440E-002
  4.239869130684668E-002  4.191256441254679E-002  4.143043851959213E-002
  4.095229566004557E-002  4.047811720501136E-002  4.000788388152157E-002
  3.954157579544464E-002  3.907917246013797E-002  3.862065283051461E-002
  3.816599534214282E-002  3.771517795495260E-002  3.726817820108099E-002
  3.682497323635361E-002  3.638553989486623E-002  3.594985474610820E-002
  3.551789415404651E-002  3.508963433757758E-002  3.466505143174575E-002
  3.424412154912454E-002  3.382682084076138E-002  3.341312555609668E-002
  3.300301210128265E-002  3.259645709534956E-002  3.219343742369103E-002
  3.179393028837475E-002  3.139791325481626E-002  3.100536429439733E-002
  3.061626182265082E-002  3.023058473268328E-002  2.984831242355501E-002
  2.946942482338883E-002  2.909390240703451E-002  2.872172620816807E-002
  2.835287782576390E-002  2.798733942493022E-002  2.762509373215712E-002
  2.726612402507736E-002  2.691041411689629E-002  2.655794833569614E-002
  2.620871149886879E-002  2.586268888297734E-002  2.551986618938848E-002
  2.518022950605643E-002  2.484376526587333E-002  2.451046020203155E-002
  2.418030130086846E-002  2.385327575268506E-002  2.352937090104553E-002
  2.320857419107464E-002  2.289087311727682E-002  2.257625517139909E-002
  2.226470779085679E-002  2.195621830822953E-002  2.165077390232173E-002
  2.134836155126056E-002  2.104896798808197E-002  2.075257965922592E-002
  2.045918268633016E-002  2.016876283167681E-002  1.988130546760642E-002
  1.959679555017274E-002  1.931521759726800E-002  1.903655567140172E-002
  1.876079336727030E-002  1.848791380420487E-002  1.821789962353727E-002
  1.795073299087527E-002  1.768639560322960E-002  1.742486870088877E-002
  1.716613308389119E-002  1.691016913290100E-002  1.665695683425176E-002
  1.640647580888325E-002  1.615870534486095E-002  1.591362443313465E-002
  1.567121180616405E-002  1.543144597901379E-002  1.519430529249932E-002
  1.495976795794874E-002  1.472781210313199E-002  1.449841581890325E-002
  1.427155720609663E-002  1.404721442221747E-002  1.382536572747802E-002
  1.360598952973465E-002  1.338906442789928E-002  1.317456925341549E-002
  1.296248310941262E-002  1.275278540717591E-002  1.254545589960139E-002
  1.234047471133499E-002  1.213782236533161E-002  1.193747980560591E-002
  1.173942841598660E-002  1.154365003472626E-002  1.135012696486077E-002
  1.115884198025510E-002  1.096977832731445E-002  1.078291972238337E-002
  1.059825034489682E-002  1.041575482638879E-002  1.023541823550386E-002
  1.005722605919515E-002  9.881164180328241E-003  9.707218851943811E-003
  9.535376668463696E-003  9.365624534151283E-003  9.197949629163042E-003
  9.032339373548743E-003  8.868781389574917E-003  8.707263462760080E-003
  8.547773502019750E-003  8.390299499325278E-003  8.234829489281746E-003
  8.081351509028525E-003  7.929853558858845E-003  7.780323563946050E-003
  7.632749337548872E-003  7.487118546052360E-003  7.343418676178338E-003
  7.201637004677631E-003  7.061760570787957E-003  6.923776151712402E-003
  6.787670241342515E-003  6.653429032415496E-003  6.521038402260256E-003
  6.390483902250966E-003  6.261750751048431E-003  6.134823831672936E-003
  6.009687692413374E-003  5.886326551539702E-003  5.764724305749321E-003
  5.644864542240892E-003  5.526730554274255E-003  5.410305360043199E-003
  5.295571724653825E-003  5.182512184975023E-003  5.071109077099204E-003
  4.961344566127841E-003  4.853200677976547E-003  4.746659332875067E-003
  4.641702380225002E-003  4.538311634465240E-003  4.436468911589504E-003
  4.336156065954722E-003  4.237355027020025E-003  4.140047835658404E-003
  4.044216679690448E-003  3.949843928298831E-003  3.856912164996771E-003
  3.765404218838813E-003  3.675303193582898E-003  3.586592494533784E-003
  3.499255852823679E-003  3.413277346911542E-003  3.328641421112431E-003
  3.245332900997928E-003  3.163337005541157E-003  3.082639355912206E-003
  3.003225980863738E-003  2.925083318680046E-003  2.848198215697328E-003
  2.772557921435829E-003  2.698150080418173E-003  2.624962720779985E-003
  2.552984239809214E-003  2.482203386580837E-003  2.412609241879952E-003
  2.344191195632263E-003  2.276938922083211E-003  2.210842352988792E-003
  2.145891649097178E-003  2.082077170216237E-003  2.019389444173704E-003
  1.957819134985214E-003  1.897357010551464E-003  1.837993910207745E-003
  1.779720712448873E-003  1.722528303147903E-003  1.666407544580849E-003
  1.611349245558534E-003  1.557344132954967E-003  1.504382824904701E-003
  1.452455805924258E-003  1.401553404191690E-003  1.351665771195518E-003
  1.302782863939562E-003  1.254894429863745E-003  1.207989994613306E-003
  1.162058852759641E-003  1.117090061546339E-003  1.073072437703819E-003
  1.029994557345393E-003  9.878447589267514E-004  9.466111492216593E-004
  9.062816122362643E-004  8.668438209565695E-004  8.282852517963255E-004
  7.905932015865235E-004  7.537548069239638E-004  7.177570656742129E-004
  6.825868604042774E-004  6.482309835025502E-004  6.146761637289454E-004
  5.819090939253994E-004  5.499164596068110E-004  5.186849681463975E-004
  4.882013782644473E-004  4.584525295292186E-004  4.294253715791702E-004
  4.011069927818099E-004  3.734846480503039E-004  3.465457855495236E-004
  3.202780720365810E-004  2.946694165941696E-004  2.697079925338899E-004
  2.453822572654582E-004  2.216809699486578E-004  1.985932067683911E-004
  1.761083736973719E-004  1.542162166356652E-004  1.329068288447218E-004
  1.121706556180693E-004  9.199849616043947E-005  7.238150267388636E-005
  5.331117667655767E-005  3.477936260732391E-005  1.677823879592105E-005
 -6.996940969851299E-007 -1.766162704057107E-005 -3.411445884383025E-005
 -5.006481444155248E-005 -6.551906506447370E-005 -8.048335008338787E-005
 -9.496360030297086E-005 -1.089655624674526E-004 -1.224948247300955E-004
 -1.355568428304508E-004 -1.481569667181861E-004 -1.603004673589678E-004
 -1.719925634585374E-004 -1.832384478427065E-004 -1.940433132367039E-004
 -2.044123771941314E-004 -2.143509059366313E-004 -2.238642368762234E-004
 -2.329577996082348E-004 -2.416371351774545E-004 -2.499079134398560E-004
 -2.577759483609671E-004 -2.652472111139004E-004 -2.723278408622077E-004
 -2.790241531365236E-004 -2.853426457380109E-004 -2.912900021265109E-004
 -2.968730922762155E-004 -3.020989710070381E-004 -3.069748738244268E-004
 -3.115082103247213E-004 -3.157065552472927E-004 -3.195776372765949E-004
 -3.231293257197514E-004 -3.263696152050964E-004 -3.293066085654321E-004
 -3.319484980875194E-004 -3.343035453238861E-004 -3.363800596757580E-004
 -3.381863759679883E-004 -3.397308312442673E-004 -3.410217410180497E-004
 -3.420673752186203E-004 -3.428759340731918E-004 -3.434555241652315E-004
 -3.438141349063354E-004 -3.439596156533443E-004 -3.438996536952202E-004
 -3.436417533232810E-004 -3.431932161885042E-004 -3.425611231334091E-004
 -3.417523176726329E-004 -3.407733912778330E-004 -3.396306706042417E-004
 -3.383302067767532E-004 -3.368777668318518E-004 -3.352788273904934E-004
 -3.335385706144360E-004 -3.316618824757897E-004 -3.296533533467457E-004
 -3.275172808933495E-004 -3.252576752351030E-004 -3.228782663094187E-004
 -3.203825133592242E-004 -3.177736164412000E-004 -3.150545298330670E-004
 -3.122279772001937E-004 -3.092964683651618E-004 -3.062623175095323E-004
 -3.031276626230665E-004 -2.998944860053165E-004 -2.965646356145927E-004
 -2.931398470522858E-004 -2.896217659656972E-004 -2.860119706492506E-004
 -2.823119946231954E-004 -2.785233489710944E-004 -2.746475442197373E-004
 -2.706861115520018E-004 -2.666406231501644E-004 -2.625127114770737E-004
 -2.583040873143497E-004 -2.540165563894374E-004 -2.496520344387815E-004
 -2.452125605702680E-004 -2.407003088056240E-004 -2.361175977022705E-004
 -2.314668979730797E-004 -2.267508380434132E-004 -2.219722075048989E-004
 -2.171339584462875E-004 -2.122392046634442E-004 -2.072912187706082E-004
 -2.022934272562115E-004 -1.972494035462443E-004 -1.921628591576764E-004
 -1.870376330427693E-004 -1.818776792421679E-004 -1.766870529813948E-004
 -1.714698953591324E-004 -1.662304167894145E-004 -1.609728793713254E-004
 -1.557015783686507E-004 -1.504208229911984E-004 -1.451349166736887E-004
 -1.398481370536857E-004 -1.345647158507871E-004 -1.292888188498116E-004
 -1.240245261885416E-004 -1.187758131463731E-004 -1.135465316248129E-004
 -1.083403925022201E-004 -1.031609490361611E-004 -9.801158147570005E-005
 -9.289548303243618E-005 -8.781564734601178E-005 -8.277485756335661E-005
 -7.777567713531220E-005 -7.282044241624067E-005 -6.791125713431440E-005
 -6.304998878140255E-005 -5.823826695217783E-005 -5.347748364286374E-005
 -4.876879550061397E-005 -4.411312799525470E-005 -3.951118146675813E-005
 -3.496343898266377E-005 -3.047017592337367E-005 -2.603147119554654E-005
 -2.164721995894984E-005 -1.731714773741348E-005 -1.304082577184703E-005
 -8.817687461541271E-006 -4.647045729940223E-006 -5.281111430382739E-007
  3.539989398267565E-006  7.558193574912271E-006  1.152748436242045E-005
  1.544887072622834E-005  1.932336848682120E-005  2.315198153855113E-005
  2.693568360168998E-005  3.067540068140918E-005  3.437199439931976E-005
  3.802624635391225E-005  4.163884365531249E-005  4.521036576768886E-005
  4.874127277855619E-005  5.223189520033236E-005  5.568242539343879E-005
  5.909291068378947E-005  6.246324823088612E-005  6.579318168460802E-005
  6.908229965173443E-005  7.233003597450305E-005  7.553567180635718E-005
  7.869833945196708E-005  8.181702792139627E-005  8.489059013206772E-005
  8.791775167571167E-005  9.089712105274581E-005  9.382720126264837E-005
  9.670640262577969E-005  9.953305670083447E-005  1.023054311517413E-004
  1.050217454094189E-004  1.076801869663922E-004  1.102789281371332E-004
  1.128161431130222E-004  1.152900251386179E-004  1.176988036359520E-004
  1.200407611043882E-004  1.223142496270506E-004  1.245177068193249E-004
  1.266496710610411E-004  1.287087958622052E-004  1.306938632209430E-004
  1.326037958431505E-004  1.344376681051426E-004  1.361947156536029E-004
  1.378743435510151E-004  1.394761328893284E-004  1.409998458106850E-004
  1.424454288891679E-004  1.438130148447882E-004  1.451029225768260E-004
  1.463156555207035E-004  1.474518983489883E-004  1.485125120530851E-004
  1.494985274586508E-004  1.504111372422319E-004  1.512516865314497E-004
  1.520216621851122E-004  1.527226808610482E-004  1.533564759925037E-004
  1.539248838025831E-004  1.544298284965111E-004  1.548733067779900E-004
  1.552573718426056E-004  1.555841170052526E-004  1.558556591219310E-004
  1.560741219670050E-004  1.562416197275968E-004  1.563602407741155E-004
  1.564320318627437E-004  1.564589829213921E-004  1.564430125631014E-004
  1.563859544643366E-004  1.562895447351798E-004  1.561554103995588E-004
  1.559850590908617E-004  1.557798700567758E-004  1.555410865535918E-004
  1.552698096959732E-004  1.549669938139857E-004  1.546334433538536E-004
  1.542698113436096E-004  1.538765994292888E-004  1.534541594719981E-004
  1.530026966804803E-004  1.525222742393474E-004  1.520128193780783E-004
  1.514741308122453E-004  1.509058874750701E-004  1.503076584453731E-004
  1.496789139658214E-004  1.490190374364511E-004  1.483273382577228E-004
  1.476030653910491E-004  1.468454214971717E-004  1.460535775081800E-004
  1.452266874855263E-004  1.443639036133634E-004  1.434643911770752E-004
  1.425273433766135E-004  1.415519958270891E-004  1.405376406027405E-004
  1.394836396854294E-004  1.383894376852388E-004  1.372545737089229E-004
  1.360786922600478E-004  1.348615530659868E-004  1.336030397365022E-004
  1.323031671719482E-004  1.309620876508502E-004  1.295800955406033E-004
  1.281576305882913E-004  1.266952797633728E-004  1.251937776381728E-004
  1.236540053063815E-004  1.220769878546750E-004  1.204638904164507E-004
  1.188160128507085E-004  1.171347831023760E-004  1.154217493135242E-004
  1.136785707664088E-004  1.119070077509246E-004  1.101089104595477E-004
  1.082862070208452E-004  1.064408907926074E-004  -5.54487829092306     
  -5.54324262041075       -5.53833871001030       -5.53017585289106     
  -5.51876950358121       -5.50414122699876       -5.48631862741792     
  -5.46533525769214       -5.44123050914324       -5.41404948261292     
  -5.38384284125649       -5.35066664573937       -5.31458217257365     
  -5.27565571640530       -5.23395837713096       -5.18956583278715     
  -5.14255809921355       -5.09301927754514       -5.04103729063614     
  -4.98670360956000       -4.93011297136580       -4.87136308930098     
  -4.81055435673305       -4.74778954602033       -4.68317350359137     
  -4.61681284249689       -4.54881563369503       -4.47929109732202     
  -4.40834929518442       -4.33610082568811       -4.26265652239135     
  -4.18812715733612       -4.11262315027318       -4.03625428485229     
  -3.95912943280020       -3.88135628705530       -3.80304110477039     
  -3.72428846103313       -3.64520101408873       -3.56587928278132     
  -3.48642143685968       -3.40692310071982       -3.32747717108234     
  -3.24817364902647       -3.16909948672543       -3.09033844915095     
  -3.01197099093688       -2.93407414851558       -2.85672144756445     
  -2.77998282572561       -2.70392457048872       -2.62860927205639     
  -2.55409579094323       -2.48043923999428       -2.40769098044633     
  -2.33589863159673       -2.26510609358949       -2.19535358277735     
  -2.12667767907143       -2.05911138464798       -1.99268419334370     
  -1.92742217003777       -1.86334803929038       -1.80048128248400     
  -1.73883824269468       -1.67843223650698       -1.61927367197677     
  -1.56137017194219       -1.50472670188314       -1.44934570153470     
  -1.39522721946939       -1.34236904987640       -1.29076687078396     
  -1.24041438299233       -1.19130344900982       -1.14342423131301     
  -1.09676532928358       -1.05131391420852       -1.00705586176738     
 -0.963975881469046      -0.922057642541628      -0.881283895821154     
 -0.841636591228836      -0.803096990470934      -0.765645774640688     
 -0.729263146447197      -0.693928926841646      -0.659622645856478     
 -0.626323627517678      -0.594011068734068      -0.562664112110032     
 -0.532261912669318      -0.502783698517063      -0.474208825504926     
 -0.446516825999874      -0.419687451890635      -0.393700711996923     
 -0.368536904075147      -0.344176641640285      -0.320600875846894     
 -0.297790912692739      -0.275728425826191      -0.254395465253424     
 -0.233774462253408      -0.213848230817888      -0.194599965939917     
 -0.176013239078140      -0.158071991125048      -0.140760523205823     
 -0.124063485630375      -0.107965865314819      -9.245297198009748E-002
 -7.751042342484464E-002 -6.312413015716611E-002 -4.928027965578773E-002
 -3.596532051536653E-002 -2.316594671369057E-002 -1.086908222030591E-002
  9.381338530506571E-004  1.226836137976952E-002  2.313407246348682E-002
  3.354756366194702E-002  4.352096707162981E-002  5.306626017625317E-002
  6.219527438319077E-002  7.091970219242212E-002  7.925110296272574E-002
  8.720090725924666E-002  9.478041978521448E-002  0.102000820918282     
  0.108873166888625       0.115408388651442       0.121617289520737     
  0.127510541644239       0.133098681410786       0.138392103891651     
  0.143401056425855       0.148135631466634       0.152605758811794     
  0.156821197344770       0.160791526415779       0.164526136993536     
  0.168034222717713       0.171324770980605       0.174406554163464     
  0.177288121148718       0.179977789223882       0.182483636486526     
  0.184813494852193       0.186974943758882       0.188975304652638     
  0.190821636329078       0.192520731195430       0.194079112507016     
  0.195503032621102       0.196798472299930       0.197971141083467     
  0.199026478741249       0.199969657801639       0.200805587146010     
  0.201538916644946       0.202174042803512       0.202715115373204     
  0.203166044879299       0.203530511004138       0.203811971759443     
  0.204013673374104       0.204138660818086       0.204189788878159     
[...]
   0.0000074   0.0000000  50.9518535   0.0000000  -0.0016394   0.0000000
   0.0000136   0.0000000  -0.0016394   0.0000000  51.7943298   0.0000000
   2   3
  -0.4022427   0.0000000  -0.0000947   0.0000000   0.0000660   0.0000000
  -0.0000947   0.0000000  -0.4026586   0.0000000   0.0006951   0.0000000
   0.0000688   0.0000000   0.0006921   0.0000000  -0.8599631   0.0000000
   2   4
  -0.4024936   0.0000000   0.0001511   0.0000000  -0.0001427   0.0000000
   0.0001511   0.0000000  -0.4024090   0.0000000   0.0009094   0.0000000
  -0.0001456   0.0000000   0.0009122   0.0000000  -0.8599618   0.0000000
   3   1
  -2.4263860   0.0000000  -0.0000095   0.0000000   0.0000430   0.0000000
  -0.0000094   0.0000000  -2.4263202   0.0000000  -0.0033763   0.0000000
   0.0000404   0.0000000  -0.0033709   0.0000000  -0.6681992   0.0000000
   3   2
  -0.4022427   0.0000000  -0.0000947   0.0000000   0.0000688   0.0000000
  -0.0000947   0.0000000  -0.4026586   0.0000000   0.0006921   0.0000000
   0.0000660   0.0000000   0.0006951   0.0000000  -0.8599631   0.0000000
   3   3
  49.3187927   0.0000000   0.0000165   0.0000000   0.0000446   0.0000000
   0.0000165   0.0000000  49.3193151   0.0000000  -0.0044334   0.0000000
   0.0000446   0.0000000  -0.0044334   0.0000000  51.6347825   0.0000000
   3   4
  -0.1556947   0.0000000  -0.0000021   0.0000000  -0.0000583   0.0000000
  -0.0000021   0.0000000  -0.1556865   0.0000000   0.0042248   0.0000000
  -0.0000564   0.0000000   0.0042227   0.0000000  -2.3600791   0.0000000
   4   1
  -2.4263759   0.0000000  -0.0000197   0.0000000   0.0000457   0.0000000
  -0.0000196   0.0000000  -2.4263309   0.0000000  -0.0033791   0.0000000
   0.0000497   0.0000000  -0.0033805   0.0000000  -0.6681988   0.0000000
   4   2
  -0.4024936   0.0000000   0.0001511   0.0000000  -0.0001456   0.0000000
   0.0001511   0.0000000  -0.4024090   0.0000000   0.0009122   0.0000000
  -0.0001427   0.0000000   0.0009094   0.0000000  -0.8599618   0.0000000
   4   3
  -0.1556947   0.0000000  -0.0000021   0.0000000  -0.0000564   0.0000000
  -0.0000021   0.0000000  -0.1556865   0.0000000   0.0042227   0.0000000
  -0.0000583   0.0000000   0.0042248   0.0000000  -2.3600791   0.0000000
   4   4
  49.3188303   0.0000000  -0.0000187   0.0000000   0.0000834   0.0000000
  -0.0000187   0.0000000  49.3192804   0.0000000  -0.0044730   0.0000000
   0.0000834   0.0000000  -0.0044730   0.0000000  51.6347842   0.0000000
 phq_init dopo call dynmat0_new
 initialize_ph esce da phq_init
     PHONON       : 12m29.62s CPU    12m42.50s WALL


     Electric Fields Calculation

      iter #   1 total cpu time :  1116.1 secs   av.it.:  11.5
      thresh= 0.100E-01 alpha_mix =  0.700 |ddv_scf|^2 =  0.942E-06

      iter #   2 total cpu time :  1247.5 secs   av.it.:  18.5
      thresh= 0.970E-04 alpha_mix =  0.700 |ddv_scf|^2 =  0.485E-05

      iter #   3 total cpu time :  1339.5 secs   av.it.:  12.3
      thresh= 0.220E-03 alpha_mix =  0.700 |ddv_scf|^2 =  0.466E-07

      iter #   4 total cpu time :  1458.5 secs   av.it.:  16.4
      thresh= 0.216E-04 alpha_mix =  0.700 |ddv_scf|^2 =  0.838E-09

      iter #   5 total cpu time :  1584.2 secs   av.it.:  17.7
      thresh= 0.290E-05 alpha_mix =  0.700 |ddv_scf|^2 =  0.114E-11

      iter #   6 total cpu time :  1725.4 secs   av.it.:  20.1
      thresh= 0.107E-06 alpha_mix =  0.700 |ddv_scf|^2 =  0.116E-12

      iter #   7 total cpu time :  1874.7 secs   av.it.:  21.3
      thresh= 0.341E-07 alpha_mix =  0.700 |ddv_scf|^2 =  0.481E-12

      iter #   8 total cpu time :  2008.9 secs   av.it.:  19.2
      thresh= 0.694E-07 alpha_mix =  0.700 |ddv_scf|^2 =  0.582E-13

      iter #   9 total cpu time :  2142.2 secs   av.it.:  19.0
      thresh= 0.241E-07 alpha_mix =  0.700 |ddv_scf|^2 =  0.153E-13

      iter #  10 total cpu time :  2272.1 secs   av.it.:  18.5
      thresh= 0.124E-07 alpha_mix =  0.700 |ddv_scf|^2 =  0.308E-13

      iter #  11 total cpu time :  2392.4 secs   av.it.:  17.0
      thresh= 0.175E-07 alpha_mix =  0.700 |ddv_scf|^2 =  0.209E-13

      iter #  12 total cpu time :  2514.5 secs   av.it.:  17.3
      thresh= 0.145E-07 alpha_mix =  0.700 |ddv_scf|^2 =  0.452E-14

     End of electric fields calculation

          Dielectric constant in cartesian axis 

          (       6.354240285       0.000023372      -0.000075675 )
          (       0.000023369       6.354115510       0.004785328 )
          (      -0.000073647       0.004783509       3.846000047 )

          Effective charges (d Force / dE) in cartesian axis

           atom      1   Co 
      Ex  (        2.90397        0.00001       -0.00002 )
      Ey  (        0.00265        2.90848        0.00390 )
      Ez  (        0.00042        0.00472        0.86004 )
           atom      2   Li 
      Ex  (        1.14713       -0.00000        0.00001 )
      Ey  (       -0.00000        1.14714       -0.00097 )
      Ez  (        0.00001       -0.00099        1.65630 )
           atom      3   O  
      Ex  (       -1.99229       -0.00001       -0.00056 )
      Ey  (       -0.01991       -2.02662       -0.00097 )
      Ez  (       -0.00354       -0.00756       -1.23281 )
           atom      4   O  
      Ex  (       -1.99230       -0.00000        0.00060 )
      Ey  (       -0.01991       -2.02661       -0.00204 )
      Ez  (       -0.00352       -0.00759       -1.23283 )


     Representation #  1 mode #   1

     Self-consistent Calculation

      iter #   1 total cpu time :  2797.3 secs   av.it.:  13.1
      thresh= 0.100E-01 alpha_mix =  0.700 |ddv_scf|^2 =  0.167E-04

      iter #   2 total cpu time :  2840.6 secs   av.it.:  18.5
      thresh= 0.409E-03 alpha_mix =  0.700 |ddv_scf|^2 =  0.466E-07

      iter #   3 total cpu time :  2885.4 secs   av.it.:  19.2
      thresh= 0.216E-04 alpha_mix =  0.700 |ddv_scf|^2 =  0.552E-09

      iter #   4 total cpu time :  2930.4 secs   av.it.:  19.3
      thresh= 0.235E-05 alpha_mix =  0.700 |ddv_scf|^2 =  0.371E-10

      iter #   5 total cpu time :  2978.0 secs   av.it.:  20.5
      thresh= 0.609E-06 alpha_mix =  0.700 |ddv_scf|^2 =  0.150E-09

      iter #   6 total cpu time :  3019.7 secs   av.it.:  17.7
      thresh= 0.122E-05 alpha_mix =  0.700 |ddv_scf|^2 =  0.132E-12

      iter #   7 total cpu time :  3068.2 secs   av.it.:  20.9
      thresh= 0.363E-07 alpha_mix =  0.700 |ddv_scf|^2 =  0.255E-11

      iter #   8 total cpu time :  3108.3 secs   av.it.:  16.4
      thresh= 0.160E-06 alpha_mix =  0.700 |ddv_scf|^2 =  0.217E-11

      iter #   9 total cpu time :  3148.7 secs   av.it.:  17.0
      thresh= 0.147E-06 alpha_mix =  0.700 |ddv_scf|^2 =  0.995E-11

      iter #  10 total cpu time :  3189.0 secs   av.it.:  16.6
      thresh= 0.315E-06 alpha_mix =  0.700 |ddv_scf|^2 =  0.137E-11

      iter #  11 total cpu time :  3229.9 secs   av.it.:  17.2
      thresh= 0.117E-06 alpha_mix =  0.700 |ddv_scf|^2 =  0.369E-12

      iter #  12 total cpu time :  3270.1 secs   av.it.:  16.7
      thresh= 0.607E-07 alpha_mix =  0.700 |ddv_scf|^2 =  0.100E-11

      iter #  13 total cpu time :  3305.6 secs   av.it.:  14.6
      thresh= 0.100E-06 alpha_mix =  0.700 |ddv_scf|^2 =  0.986E-12

      iter #  14 total cpu time :  3342.3 secs   av.it.:  15.3
      thresh= 0.993E-07 alpha_mix =  0.700 |ddv_scf|^2 =  0.217E-11

      iter #  15 total cpu time :  3373.0 secs   av.it.:  12.5
      thresh= 0.147E-06 alpha_mix =  0.700 |ddv_scf|^2 =  0.243E-11

      iter #  16 total cpu time :  3411.8 secs   av.it.:  16.4
      thresh= 0.156E-06 alpha_mix =  0.700 |ddv_scf|^2 =  0.761E-11

      iter #  17 total cpu time :  3448.5 secs   av.it.:  15.3
      thresh= 0.276E-06 alpha_mix =  0.700 |ddv_scf|^2 =  0.332E-11

      iter #  18 total cpu time :  3484.5 secs   av.it.:  14.9
      thresh= 0.182E-06 alpha_mix =  0.700 |ddv_scf|^2 =  0.110E-11

      iter #  19 total cpu time :  3523.5 secs   av.it.:  16.4
      thresh= 0.105E-06 alpha_mix =  0.700 |ddv_scf|^2 =  0.268E-14
 nspin_mag in drhodvus           1

     End of self-consistent calculation
 nspin in dynmat_hub_scf           1

     Convergence has been achieved 


     Representation #  2 mode #   2

     Self-consistent Calculation

      iter #   1 total cpu time :  3619.4 secs   av.it.:  13.1
      thresh= 0.100E-01 alpha_mix =  0.700 |ddv_scf|^2 =  0.167E-04

      iter #   2 total cpu time :  3663.9 secs   av.it.:  18.6
      thresh= 0.409E-03 alpha_mix =  0.700 |ddv_scf|^2 =  0.484E-07

      iter #   3 total cpu time :  3710.1 secs   av.it.:  19.6
      thresh= 0.220E-04 alpha_mix =  0.700 |ddv_scf|^2 =  0.108E-07

      iter #   4 total cpu time :  3754.2 secs   av.it.:  18.8
      thresh= 0.104E-04 alpha_mix =  0.700 |ddv_scf|^2 =  0.238E-07

      iter #   5 total cpu time :  3795.0 secs   av.it.:  17.1
      thresh= 0.154E-04 alpha_mix =  0.700 |ddv_scf|^2 =  0.163E-10

      iter #   6 total cpu time :  3839.0 secs   av.it.:  18.9
      thresh= 0.403E-06 alpha_mix =  0.700 |ddv_scf|^2 =  0.119E-12

      iter #   7 total cpu time :  3884.2 secs   av.it.:  19.3
      thresh= 0.345E-07 alpha_mix =  0.700 |ddv_scf|^2 =  0.781E-14
 nspin_mag in drhodvus           1

     End of self-consistent calculation
 nspin in dynmat_hub_scf           1

     Convergence has been achieved 


     Representation #  3 mode #   3

     Self-consistent Calculation

      iter #   1 total cpu time :  3981.9 secs   av.it.:  14.0
      thresh= 0.100E-01 alpha_mix =  0.700 |ddv_scf|^2 =  0.142E-03

      iter #   2 total cpu time :  4026.2 secs   av.it.:  18.9
      thresh= 0.119E-02 alpha_mix =  0.700 |ddv_scf|^2 =  0.487E-03

      iter #   3 total cpu time :  4066.3 secs   av.it.:  16.8
      thresh= 0.221E-02 alpha_mix =  0.700 |ddv_scf|^2 =  0.242E-04

      iter #   4 total cpu time :  4105.7 secs   av.it.:  16.5
      thresh= 0.492E-03 alpha_mix =  0.700 |ddv_scf|^2 =  0.493E-06

      iter #   5 total cpu time :  4145.4 secs   av.it.:  16.7
      thresh= 0.702E-04 alpha_mix =  0.700 |ddv_scf|^2 =  0.135E-09

      iter #   6 total cpu time :  4187.6 secs   av.it.:  17.8
      thresh= 0.116E-05 alpha_mix =  0.700 |ddv_scf|^2 =  0.144E-11

      iter #   7 total cpu time :  4230.3 secs   av.it.:  18.0
      thresh= 0.120E-06 alpha_mix =  0.700 |ddv_scf|^2 =  0.153E-12

      iter #   8 total cpu time :  4275.0 secs   av.it.:  19.0
      thresh= 0.391E-07 alpha_mix =  0.700 |ddv_scf|^2 =  0.290E-12

      iter #   9 total cpu time :  4315.4 secs   av.it.:  17.1
      thresh= 0.538E-07 alpha_mix =  0.700 |ddv_scf|^2 =  0.310E-13

      iter #  10 total cpu time :  4358.0 secs   av.it.:  18.1
      thresh= 0.176E-07 alpha_mix =  0.700 |ddv_scf|^2 =  0.199E-13

      iter #  11 total cpu time :  4398.6 secs   av.it.:  17.0
      thresh= 0.141E-07 alpha_mix =  0.700 |ddv_scf|^2 =  0.199E-13

      iter #  12 total cpu time :  4438.4 secs   av.it.:  16.7
      thresh= 0.141E-07 alpha_mix =  0.700 |ddv_scf|^2 =  0.764E-15
 nspin_mag in drhodvus           1

     End of self-consistent calculation
 nspin in dynmat_hub_scf           1

     Convergence has been achieved 


     Representation #  4 mode #   4

     Self-consistent Calculation

      iter #   1 total cpu time :  4520.2 secs   av.it.:   6.4
      thresh= 0.100E-01 alpha_mix =  0.700 |ddv_scf|^2 =  0.188E-06

      iter #   2 total cpu time :  4559.9 secs   av.it.:  16.2
      thresh= 0.434E-04 alpha_mix =  0.700 |ddv_scf|^2 =  0.965E-08

      iter #   3 total cpu time :  4600.7 secs   av.it.:  16.8
      thresh= 0.982E-05 alpha_mix =  0.700 |ddv_scf|^2 =  0.336E-10

      iter #   4 total cpu time :  4644.7 secs   av.it.:  18.7
      thresh= 0.580E-06 alpha_mix =  0.700 |ddv_scf|^2 =  0.511E-11

      iter #   5 total cpu time :  4691.8 secs   av.it.:  20.3
      thresh= 0.226E-06 alpha_mix =  0.700 |ddv_scf|^2 =  0.263E-10

      iter #   6 total cpu time :  4733.5 secs   av.it.:  17.7
      thresh= 0.513E-06 alpha_mix =  0.700 |ddv_scf|^2 =  0.832E-12

      iter #   7 total cpu time :  4778.0 secs   av.it.:  18.5
      thresh= 0.912E-07 alpha_mix =  0.700 |ddv_scf|^2 =  0.183E-11

      iter #   8 total cpu time :  4816.8 secs   av.it.:  16.2
      thresh= 0.135E-06 alpha_mix =  0.700 |ddv_scf|^2 =  0.322E-11

      iter #   9 total cpu time :  4853.9 secs   av.it.:  15.5
      thresh= 0.179E-06 alpha_mix =  0.700 |ddv_scf|^2 =  0.153E-11

      iter #  10 total cpu time :  4896.0 secs   av.it.:  17.9
      thresh= 0.124E-06 alpha_mix =  0.700 |ddv_scf|^2 =  0.118E-11

      iter #  11 total cpu time :  4936.1 secs   av.it.:  16.9
      thresh= 0.109E-06 alpha_mix =  0.700 |ddv_scf|^2 =  0.394E-12

      iter #  12 total cpu time :  4977.4 secs   av.it.:  17.5
      thresh= 0.628E-07 alpha_mix =  0.700 |ddv_scf|^2 =  0.899E-13

      iter #  13 total cpu time :  5017.8 secs   av.it.:  17.0
      thresh= 0.300E-07 alpha_mix =  0.700 |ddv_scf|^2 =  0.834E-13

      iter #  14 total cpu time :  5056.3 secs   av.it.:  16.2
      thresh= 0.289E-07 alpha_mix =  0.700 |ddv_scf|^2 =  0.188E-13

      iter #  15 total cpu time :  5099.9 secs   av.it.:  18.6
      thresh= 0.137E-07 alpha_mix =  0.700 |ddv_scf|^2 =  0.663E-13

      iter #  16 total cpu time :  5139.1 secs   av.it.:  16.5
      thresh= 0.257E-07 alpha_mix =  0.700 |ddv_scf|^2 =  0.237E-13

      iter #  17 total cpu time :  5181.4 secs   av.it.:  17.9
      thresh= 0.154E-07 alpha_mix =  0.700 |ddv_scf|^2 =  0.207E-13

      iter #  18 total cpu time :  5221.9 secs   av.it.:  17.0
      thresh= 0.144E-07 alpha_mix =  0.700 |ddv_scf|^2 =  0.312E-14
 nspin_mag in drhodvus           1

     End of self-consistent calculation
 nspin in dynmat_hub_scf           1

     Convergence has been achieved 


     Representation #  5 mode #   5

     Self-consistent Calculation

      iter #   1 total cpu time :  5304.3 secs   av.it.:   6.4
      thresh= 0.100E-01 alpha_mix =  0.700 |ddv_scf|^2 =  0.188E-06

      iter #   2 total cpu time :  5343.2 secs   av.it.:  16.3
      thresh= 0.434E-04 alpha_mix =  0.700 |ddv_scf|^2 =  0.965E-08

      iter #   3 total cpu time :  5383.6 secs   av.it.:  17.1
      thresh= 0.983E-05 alpha_mix =  0.700 |ddv_scf|^2 =  0.124E-09

      iter #   4 total cpu time :  5428.6 secs   av.it.:  19.2
      thresh= 0.111E-05 alpha_mix =  0.700 |ddv_scf|^2 =  0.474E-09

      iter #   5 total cpu time :  5469.0 secs   av.it.:  17.1
      thresh= 0.218E-05 alpha_mix =  0.700 |ddv_scf|^2 =  0.190E-11

      iter #   6 total cpu time :  5511.6 secs   av.it.:  18.2
      thresh= 0.138E-06 alpha_mix =  0.700 |ddv_scf|^2 =  0.651E-13

      iter #   7 total cpu time :  5558.0 secs   av.it.:  19.9
      thresh= 0.255E-07 alpha_mix =  0.700 |ddv_scf|^2 =  0.336E-12

      iter #   8 total cpu time :  5599.0 secs   av.it.:  17.3
      thresh= 0.580E-07 alpha_mix =  0.700 |ddv_scf|^2 =  0.194E-13

      iter #   9 total cpu time :  5641.6 secs   av.it.:  18.1
      thresh= 0.139E-07 alpha_mix =  0.700 |ddv_scf|^2 =  0.204E-13

      iter #  10 total cpu time :  5681.1 secs   av.it.:  16.5
      thresh= 0.143E-07 alpha_mix =  0.700 |ddv_scf|^2 =  0.262E-13

      iter #  11 total cpu time :  5719.4 secs   av.it.:  16.1
      thresh= 0.162E-07 alpha_mix =  0.700 |ddv_scf|^2 =  0.704E-14
 nspin_mag in drhodvus           1

     End of self-consistent calculation
 nspin in dynmat_hub_scf           1

     Convergence has been achieved 


     Representation #  6 mode #   6

     Self-consistent Calculation

      iter #   1 total cpu time :  5808.4 secs   av.it.:   9.5
      thresh= 0.100E-01 alpha_mix =  0.700 |ddv_scf|^2 =  0.268E-05

      iter #   2 total cpu time :  5851.6 secs   av.it.:  18.4
      thresh= 0.164E-03 alpha_mix =  0.700 |ddv_scf|^2 =  0.923E-05

      iter #   3 total cpu time :  5891.7 secs   av.it.:  16.8
      thresh= 0.304E-03 alpha_mix =  0.700 |ddv_scf|^2 =  0.534E-06

      iter #   4 total cpu time :  5931.2 secs   av.it.:  16.7
      thresh= 0.731E-04 alpha_mix =  0.700 |ddv_scf|^2 =  0.136E-07

      iter #   5 total cpu time :  5971.3 secs   av.it.:  16.8
      thresh= 0.116E-04 alpha_mix =  0.700 |ddv_scf|^2 =  0.687E-11

      iter #   6 total cpu time :  6012.6 secs   av.it.:  17.6
      thresh= 0.262E-06 alpha_mix =  0.700 |ddv_scf|^2 =  0.142E-12

      iter #   7 total cpu time :  6052.4 secs   av.it.:  16.6
      thresh= 0.377E-07 alpha_mix =  0.700 |ddv_scf|^2 =  0.258E-13

      iter #   8 total cpu time :  6093.7 secs   av.it.:  17.5
      thresh= 0.161E-07 alpha_mix =  0.700 |ddv_scf|^2 =  0.128E-14
 nspin_mag in drhodvus           1

     End of self-consistent calculation
 nspin in dynmat_hub_scf           1

     Convergence has been achieved 


     Representation #  7 mode #   7

     Self-consistent Calculation

      iter #   1 total cpu time :  6186.4 secs   av.it.:  11.7
      thresh= 0.100E-01 alpha_mix =  0.700 |ddv_scf|^2 =  0.121E-05

      iter #   2 total cpu time :  6231.1 secs   av.it.:  19.1
      thresh= 0.110E-03 alpha_mix =  0.700 |ddv_scf|^2 =  0.699E-08

      iter #   3 total cpu time :  6276.7 secs   av.it.:  19.6
      thresh= 0.836E-05 alpha_mix =  0.700 |ddv_scf|^2 =  0.306E-09

      iter #   4 total cpu time :  6322.0 secs   av.it.:  19.4
      thresh= 0.175E-05 alpha_mix =  0.700 |ddv_scf|^2 =  0.128E-10

      iter #   5 total cpu time :  6370.6 secs   av.it.:  20.9
      thresh= 0.358E-06 alpha_mix =  0.700 |ddv_scf|^2 =  0.734E-10

      iter #   6 total cpu time :  6413.6 secs   av.it.:  18.4
      thresh= 0.857E-06 alpha_mix =  0.700 |ddv_scf|^2 =  0.858E-11

      iter #   7 total cpu time :  6458.1 secs   av.it.:  18.9
      thresh= 0.293E-06 alpha_mix =  0.700 |ddv_scf|^2 =  0.286E-11

      iter #   8 total cpu time :  6501.8 secs   av.it.:  18.6
      thresh= 0.169E-06 alpha_mix =  0.700 |ddv_scf|^2 =  0.987E-11

      iter #   9 total cpu time :  6544.3 secs   av.it.:  18.0
      thresh= 0.314E-06 alpha_mix =  0.700 |ddv_scf|^2 =  0.491E-12

      iter #  10 total cpu time :  6591.3 secs   av.it.:  20.2
      thresh= 0.701E-07 alpha_mix =  0.700 |ddv_scf|^2 =  0.475E-11

      iter #  11 total cpu time :  6632.3 secs   av.it.:  17.1
      thresh= 0.218E-06 alpha_mix =  0.700 |ddv_scf|^2 =  0.237E-11

      iter #  12 total cpu time :  6675.9 secs   av.it.:  18.4
      thresh= 0.154E-06 alpha_mix =  0.700 |ddv_scf|^2 =  0.167E-11

      iter #  13 total cpu time :  6715.3 secs   av.it.:  16.6
      thresh= 0.129E-06 alpha_mix =  0.700 |ddv_scf|^2 =  0.301E-11

      iter #  14 total cpu time :  6754.2 secs   av.it.:  16.3
      thresh= 0.174E-06 alpha_mix =  0.700 |ddv_scf|^2 =  0.827E-12

      iter #  15 total cpu time :  6797.7 secs   av.it.:  18.4
      thresh= 0.909E-07 alpha_mix =  0.700 |ddv_scf|^2 =  0.130E-11

      iter #  16 total cpu time :  6837.2 secs   av.it.:  16.5
      thresh= 0.114E-06 alpha_mix =  0.700 |ddv_scf|^2 =  0.130E-11

      iter #  17 total cpu time :  6877.1 secs   av.it.:  16.7
      thresh= 0.114E-06 alpha_mix =  0.700 |ddv_scf|^2 =  0.658E-13

      iter #  18 total cpu time :  6921.5 secs   av.it.:  18.9
      thresh= 0.257E-07 alpha_mix =  0.700 |ddv_scf|^2 =  0.420E-12

      iter #  19 total cpu time :  6960.7 secs   av.it.:  16.4
      thresh= 0.648E-07 alpha_mix =  0.700 |ddv_scf|^2 =  0.240E-12

      iter #  20 total cpu time :  7002.8 secs   av.it.:  17.8
      thresh= 0.490E-07 alpha_mix =  0.700 |ddv_scf|^2 =  0.113E-12

      iter #  21 total cpu time :  7042.6 secs   av.it.:  16.7
      thresh= 0.337E-07 alpha_mix =  0.700 |ddv_scf|^2 =  0.947E-13

      iter #  22 total cpu time :  7081.3 secs   av.it.:  16.3
      thresh= 0.308E-07 alpha_mix =  0.700 |ddv_scf|^2 =  0.188E-13

      iter #  23 total cpu time :  7125.4 secs   av.it.:  18.8
      thresh= 0.137E-07 alpha_mix =  0.700 |ddv_scf|^2 =  0.767E-13

      iter #  24 total cpu time :  7165.7 secs   av.it.:  17.0
      thresh= 0.277E-07 alpha_mix =  0.700 |ddv_scf|^2 =  0.696E-14
 nspin_mag in drhodvus           1

     End of self-consistent calculation
 nspin in dynmat_hub_scf           1
