
     Program PHONON v.5.2.0 starts on 21Sep2015 at 15:22:49 

     This program is part of the open-source Quantum ESPRESSO suite
     for quantum simulation of materials; please cite
         "P. Giannozzi et al., J. Phys.:Condens. Matter 21 395502 (2009);
          URL http://www.quantum-espresso.org", 
     in publications or presentations arising from this work. More details at
     http://www.quantum-espresso.org/quote

     Parallel version (MPI), running on     2 processors
     R & G space division:  proc/nbgrp/npool/nimage =       2

     Reading data from directory:
     ./out/AlAs.save

   Info: using nr1, nr2, nr3 values from input

   Info: using nr1, nr2, nr3 values from input

     IMPORTANT: XC functional enforced from input :
     Exchange-correlation      =  SLA  PZ   NOGX NOGC ( 1  1  0  0 0 0)
     Any further DFT definition will be discarded
     Please, verify this is what you really want

 
     Parallelization info
     --------------------
     sticks:   dense  smooth     PW     G-vecs:    dense   smooth      PW
     Min         120     120     42                 1221     1221     229
     Max         121     121     43                 1224     1224     230
     Sum         241     241     85                 2445     2445     459
 


     Dynamical matrices for ( 4, 4, 4)  uniform grid of q-points
     (   8q-points):
       N         xq(1)         xq(2)         xq(3) 
       1   0.000000000   0.000000000   0.000000000
       2  -0.250000000   0.250000000  -0.250000000
       3   0.500000000  -0.500000000   0.500000000
       4   0.000000000   0.500000000   0.000000000
       5   0.750000000  -0.250000000   0.750000000
       6   0.500000000   0.000000000   0.500000000
       7   0.000000000  -1.000000000   0.000000000
       8  -0.500000000  -1.000000000   0.000000000

     Calculation of q =    0.0000000   0.0000000   0.0000000

                                                                                

     bravais-lattice index     =            2
     lattice parameter (alat)  =      10.5000  a.u.
     unit-cell volume          =     289.4062 (a.u.)^3
     number of atoms/cell      =            2
     number of atomic types    =            2
     kinetic-energy cut-off    =      16.0000  Ry
     charge density cut-off    =      64.0000  Ry
     convergence threshold     =      1.0E-14
     beta                      =       0.7000
     number of iterations used =            4
     Exchange-correlation      =  SLA  PZ   NOGX NOGC ( 1  1  0  0 0 0)


     celldm(1)=   10.50000  celldm(2)=    0.00000  celldm(3)=    0.00000
     celldm(4)=    0.00000  celldm(5)=    0.00000  celldm(6)=    0.00000

     crystal axes: (cart. coord. in units of alat)
               a(1) = ( -0.5000  0.0000  0.5000 )  
               a(2) = (  0.0000  0.5000  0.5000 )  
               a(3) = ( -0.5000  0.5000  0.0000 )  

     reciprocal axes: (cart. coord. in units 2 pi/alat)
               b(1) = ( -1.0000 -1.0000  1.0000 )  
               b(2) = (  1.0000  1.0000  1.0000 )  
               b(3) = ( -1.0000  1.0000 -1.0000 )  


     Atoms inside the unit cell: 

     Cartesian axes

     site n.  atom      mass           positions (alat units)
        1     Al  26.9800   tau(    1) = (    0.00000    0.00000    0.00000  )
        2     As  74.9200   tau(    2) = (    0.25000    0.25000    0.25000  )

     Computing dynamical matrix for 
                    q = (   0.0000000   0.0000000   0.0000000 )
 
     25 Sym.Ops. (with q -> -q+G )


     G cutoff =  178.7306  (   1224 G-vectors)     FFT grid: ( 20, 20, 20)
     number of k points=     2

     PseudoPot. # 1 for Al read from file:
     ./Al.pz-vbc.UPF
     MD5 check sum: 13b59ac2968bcb74bf87a15840bc9960
     Pseudo is Norm-conserving, Zval =  3.0
     Generated by new atomic code, or converted to UPF format
     Using radial grid of  171 points,  2 beta functions with: 
                l(1) =   0
                l(2) =   1

     PseudoPot. # 2 for As read from file:
     ./As.pz-bhs.UPF
     MD5 check sum: d9127a8b584737f42ec2fe47e3acdea8
     Pseudo is Norm-conserving, Zval =  5.0
     Generated by new atomic code, or converted to UPF format
     Using radial grid of  525 points,  2 beta functions with: 
                l(1) =   0
                l(2) =   1

     Mode symmetry, T_d (-43m)  point group:


     Electric field:
     Dielectric constant
     Born effective charges in two ways 


     Atomic displacements:
     There are   2 irreducible representations

     Representation     1      3 modes -T_2  G_15 P_4  To be done

     Representation     2      3 modes -T_2  G_15 P_4  To be done



     Alpha used in Ewald sum =   0.7000
     PHONON       :     0.49s CPU         0.91s WALL


     Electric Fields Calculation

      iter #   1 total cpu time :     1.1 secs   av.it.:   6.0
      thresh= 1.000E-02 alpha_mix =  0.700 |ddv_scf|^2 =  1.326E-06

      iter #   2 total cpu time :     1.2 secs   av.it.:   9.3
      thresh= 1.151E-04 alpha_mix =  0.700 |ddv_scf|^2 =  6.508E-08

      iter #   3 total cpu time :     1.3 secs   av.it.:   9.5
      thresh= 2.551E-05 alpha_mix =  0.700 |ddv_scf|^2 =  6.401E-10

      iter #   4 total cpu time :     1.5 secs   av.it.:   9.8
      thresh= 2.530E-06 alpha_mix =  0.700 |ddv_scf|^2 =  3.108E-12

      iter #   5 total cpu time :     1.6 secs   av.it.:   9.2
      thresh= 1.763E-07 alpha_mix =  0.700 |ddv_scf|^2 =  1.542E-14

      iter #   6 total cpu time :     1.7 secs   av.it.:   9.7
      thresh= 1.242E-08 alpha_mix =  0.700 |ddv_scf|^2 =  1.667E-16

     End of electric fields calculation

          Dielectric constant in cartesian axis 

          (      13.744319556      -0.000000000      -0.000000000 )
          (      -0.000000000      13.744319556       0.000000000 )
          (      -0.000000000       0.000000000      13.744319556 )

          Effective charges (d Force / dE) in cartesian axis

           atom      1   Al 
      Ex  (        1.88263       -0.00000       -0.00000 )
      Ey  (       -0.00000        1.88263        0.00000 )
      Ez  (       -0.00000        0.00000        1.88263 )
           atom      2   As 
      Ex  (       -3.23388       -0.00000        0.00000 )
      Ey  (       -0.00000       -3.23388        0.00000 )
      Ez  (        0.00000       -0.00000       -3.23388 )


     Representation #  1 modes #   1  2  3

     Self-consistent Calculation

      iter #   1 total cpu time :     1.8 secs   av.it.:   6.0
      thresh= 1.000E-02 alpha_mix =  0.700 |ddv_scf|^2 =  4.662E-07

      iter #   2 total cpu time :     1.9 secs   av.it.:  10.2
      thresh= 6.828E-05 alpha_mix =  0.700 |ddv_scf|^2 =  2.270E-08

      iter #   3 total cpu time :     2.1 secs   av.it.:   9.8
      thresh= 1.507E-05 alpha_mix =  0.700 |ddv_scf|^2 =  3.782E-11

      iter #   4 total cpu time :     2.2 secs   av.it.:   9.7
      thresh= 6.150E-07 alpha_mix =  0.700 |ddv_scf|^2 =  7.212E-13

      iter #   5 total cpu time :     2.3 secs   av.it.:   9.5
      thresh= 8.493E-08 alpha_mix =  0.700 |ddv_scf|^2 =  7.258E-15

     End of self-consistent calculation

     Convergence has been achieved 


     Representation #  2 modes #   4  5  6

     Self-consistent Calculation

      iter #   1 total cpu time :     2.5 secs   av.it.:   5.0
      thresh= 1.000E-02 alpha_mix =  0.700 |ddv_scf|^2 =  2.914E-08

      iter #   2 total cpu time :     2.6 secs   av.it.:  10.2
      thresh= 1.707E-05 alpha_mix =  0.700 |ddv_scf|^2 =  3.255E-10

      iter #   3 total cpu time :     2.7 secs   av.it.:   9.5
      thresh= 1.804E-06 alpha_mix =  0.700 |ddv_scf|^2 =  3.011E-11

      iter #   4 total cpu time :     2.9 secs   av.it.:   9.5
      thresh= 5.487E-07 alpha_mix =  0.700 |ddv_scf|^2 =  1.286E-12

      iter #   5 total cpu time :     3.0 secs   av.it.:   9.5
      thresh= 1.134E-07 alpha_mix =  0.700 |ddv_scf|^2 =  4.666E-16

     End of self-consistent calculation

     Convergence has been achieved 
 
     Number of q in the star =    1
     List of q in the star:
          1   0.000000000   0.000000000   0.000000000

          Dielectric constant in cartesian axis 

          (      13.744319556      -0.000000000      -0.000000000 )
          (      -0.000000000      13.744319556       0.000000000 )
          (      -0.000000000       0.000000000      13.744319556 )

          Effective charges (d Force / dE) in cartesian axis

           atom      1   Al 
      Ex  (        1.88263       -0.00000       -0.00000 )
      Ey  (       -0.00000        1.88263        0.00000 )
      Ez  (       -0.00000        0.00000        1.88263 )
           atom      2   As 
      Ex  (       -3.23388       -0.00000        0.00000 )
      Ey  (       -0.00000       -3.23388        0.00000 )
      Ez  (        0.00000       -0.00000       -3.23388 )

          Effective charges (d P / du) in cartesian axis 

           atom      1   Al 
      Px  (        1.88284        0.00000        0.00000 )
      Py  (        0.00000        1.88284       -0.00000 )
      Pz  (        0.00000       -0.00000        1.88284 )
           atom      2   As 
      Px  (       -3.23354        0.00000        0.00000 )
      Py  (        0.00000       -3.23354        0.00000 )
      Pz  (        0.00000        0.00000       -3.23354 )

     Diagonalizing the dynamical matrix

     q = (    0.000000000   0.000000000   0.000000000 ) 

 **************************************************************************
     freq (    1) =       0.136062 [THz] =       4.538540 [cm-1]
     freq (    2) =       0.136062 [THz] =       4.538540 [cm-1]
     freq (    3) =       0.136062 [THz] =       4.538540 [cm-1]
     freq (    4) =      11.258409 [THz] =     375.540116 [cm-1]
     freq (    5) =      11.258409 [THz] =     375.540116 [cm-1]
     freq (    6) =      11.258409 [THz] =     375.540116 [cm-1]
 **************************************************************************

     Mode symmetry, T_d (-43m)  point group:

     freq (  1 -  3) =          4.5  [cm-1]   --> T_2  G_15 P_4   I+R
     freq (  4 -  6) =        375.5  [cm-1]   --> T_2  G_15 P_4   I+R

     Calculation of q =   -0.2500000   0.2500000  -0.2500000
 
     Parallelization info
     --------------------
     sticks:   dense  smooth     PW     G-vecs:    dense   smooth      PW
     Min         120     120     42                 1221     1221     264
     Max         121     121     43                 1224     1224     267
     Sum         241     241     85                 2445     2445     531
 


     bravais-lattice index     =            2
     lattice parameter (alat)  =      10.5000  a.u.
     unit-cell volume          =     289.4062 (a.u.)^3
     number of atoms/cell      =            2
     number of atomic types    =            2
     number of electrons       =         8.00
     number of Kohn-Sham states=            4
     kinetic-energy cutoff     =      16.0000  Ry
     charge density cutoff     =      64.0000  Ry
     Exchange-correlation      =  SLA  PZ   NOGX NOGC ( 1  1  0  0 0 0)

     celldm(1)=  10.500000  celldm(2)=   0.000000  celldm(3)=   0.000000
     celldm(4)=   0.000000  celldm(5)=   0.000000  celldm(6)=   0.000000

     crystal axes: (cart. coord. in units of alat)
               a(1) = (  -0.500000   0.000000   0.500000 )  
               a(2) = (   0.000000   0.500000   0.500000 )  
               a(3) = (  -0.500000   0.500000   0.000000 )  

     reciprocal axes: (cart. coord. in units 2 pi/alat)
               b(1) = ( -1.000000 -1.000000  1.000000 )  
               b(2) = (  1.000000  1.000000  1.000000 )  
               b(3) = ( -1.000000  1.000000 -1.000000 )  


     PseudoPot. # 1 for Al read from file:
     ./Al.pz-vbc.UPF
     MD5 check sum: 13b59ac2968bcb74bf87a15840bc9960
     Pseudo is Norm-conserving, Zval =  3.0
     Generated by new atomic code, or converted to UPF format
     Using radial grid of  171 points,  2 beta functions with: 
                l(1) =   0
                l(2) =   1

     PseudoPot. # 2 for As read from file:
     ./As.pz-bhs.UPF
     MD5 check sum: d9127a8b584737f42ec2fe47e3acdea8
     Pseudo is Norm-conserving, Zval =  5.0
     Generated by new atomic code, or converted to UPF format
     Using radial grid of  525 points,  2 beta functions with: 
                l(1) =   0
                l(2) =   1

     atomic species   valence    mass     pseudopotential
        Al             3.00    26.98000     Al( 1.00)
        As             5.00    74.92000     As( 1.00)

     24 Sym. Ops. (no inversion) found



   Cartesian axes

     site n.     atom                  positions (alat units)
         1           Al  tau(   1) = (   0.0000000   0.0000000   0.0000000  )
         2           As  tau(   2) = (   0.2500000   0.2500000   0.2500000  )

     number of k points=    20
                       cart. coord. in units 2pi/alat
        k(    1) = (   0.2500000   0.2500000   0.2500000), wk =   0.1875000
        k(    2) = (   0.0000000   0.5000000   0.0000000), wk =   0.0000000
        k(    3) = (   0.2500000   0.2500000   0.7500000), wk =   0.3750000
        k(    4) = (   0.0000000   0.5000000   0.5000000), wk =   0.0000000
        k(    5) = (  -0.2500000   0.2500000  -0.2500000), wk =   0.0625000
        k(    6) = (  -0.5000000   0.5000000  -0.5000000), wk =   0.0000000
        k(    7) = (  -0.2500000  -0.2500000  -0.2500000), wk =   0.1875000
        k(    8) = (  -0.5000000   0.0000000  -0.5000000), wk =   0.0000000
        k(    9) = (   0.2500000  -0.2500000   0.2500000), wk =   0.0625000
        k(   10) = (   0.0000000   0.0000000   0.0000000), wk =   0.0000000
        k(   11) = (  -0.7500000  -0.2500000   0.2500000), wk =   0.1875000
        k(   12) = (  -1.0000000   0.0000000   0.0000000), wk =   0.0000000
        k(   13) = (  -0.7500000   0.2500000  -0.2500000), wk =   0.1875000
        k(   14) = (  -1.0000000   0.5000000  -0.5000000), wk =   0.0000000
        k(   15) = (  -0.2500000  -0.2500000  -0.7500000), wk =   0.3750000
        k(   16) = (  -0.5000000   0.0000000  -1.0000000), wk =   0.0000000
        k(   17) = (   0.2500000  -0.2500000   0.7500000), wk =   0.1875000
        k(   18) = (   0.0000000   0.0000000   0.5000000), wk =   0.0000000
        k(   19) = (  -0.2500000   0.2500000   0.7500000), wk =   0.1875000
        k(   20) = (  -0.5000000   0.5000000   0.5000000), wk =   0.0000000

     Dense  grid:     2445 G-vectors     FFT dimensions: (  20,  20,  20)

     Largest allocated arrays     est. size (Mb)     dimensions
        Kohn-Sham Wavefunctions         0.01 Mb     (     165,    4)
        NL pseudopotentials             0.02 Mb     (     165,    8)
        Each V/rho on FFT grid          0.06 Mb     (    4000)
        Each G-vector array             0.01 Mb     (    1224)
        G-vector shells                 0.00 Mb     (      61)
     Largest temporary arrays     est. size (Mb)     dimensions
        Auxiliary wavefunctions         0.04 Mb     (     165,   16)
        Each subspace H/S matrix        0.00 Mb     (      16,   16)
        Each <psi_i|beta_j> matrix      0.00 Mb     (       8,    4)

     The potential is recalculated from file :
     ./out/_ph0/AlAs.save/charge-density.dat

     Starting wfc are    8 atomic wfcs

     Band Structure Calculation
     Davidson diagonalization with overlap

     ethr =  1.25E-10,  avg # of iterations = 11.0

     total cpu time spent up to now is        0.3 secs

     End of band structure calculation

          k = 0.2500 0.2500 0.2500 (   311 PWs)   bands (ev):

    -6.3575   1.7035   4.6970   4.6970

          k = 0.0000 0.5000 0.0000 (   311 PWs)   bands (ev):

    -6.1430   1.9396   3.7847   3.7847

          k = 0.2500 0.2500 0.7500 (   311 PWs)   bands (ev):

    -5.1819  -0.0415   2.3125   3.5086

          k = 0.0000 0.5000 0.5000 (   315 PWs)   bands (ev):

    -5.5287   0.5005   2.1485   4.2663

          k =-0.2500 0.2500-0.2500 (   311 PWs)   bands (ev):

    -6.3575   1.7035   4.6970   4.6970

          k =-0.5000 0.5000-0.5000 (   302 PWs)   bands (ev):

    -5.4218  -0.6403   4.3483   4.3483

          k =-0.2500-0.2500-0.2500 (   311 PWs)   bands (ev):

    -6.3575   1.7035   4.6970   4.6970

          k =-0.5000 0.0000-0.5000 (   315 PWs)   bands (ev):

    -5.5287   0.5005   2.1485   4.2663

          k = 0.2500-0.2500 0.2500 (   311 PWs)   bands (ev):

    -6.3575   1.7035   4.6970   4.6970

          k = 0.0000 0.0000 0.0000 (   331 PWs)   bands (ev):

    -6.9797   5.1761   5.1761   5.1761

          k =-0.7500-0.2500 0.2500 (   311 PWs)   bands (ev):

    -5.1819  -0.0415   2.3125   3.5086

          k =-1.0000 0.0000 0.0000 (   302 PWs)   bands (ev):

    -4.8216  -0.4470   2.9274   2.9274

          k =-0.7500 0.2500-0.2500 (   311 PWs)   bands (ev):

    -5.1819  -0.0415   2.3125   3.5086

          k =-1.0000 0.5000-0.5000 (   315 PWs)   bands (ev):

    -5.5287   0.5005   2.1485   4.2663

          k =-0.2500-0.2500-0.7500 (   311 PWs)   bands (ev):

    -5.1819  -0.0415   2.3125   3.5086

          k =-0.5000 0.0000-1.0000 (   308 PWs)   bands (ev):

    -4.7852  -0.0517   1.7949   2.1910

          k = 0.2500-0.2500 0.7500 (   311 PWs)   bands (ev):

    -5.1819  -0.0415   2.3125   3.5086

          k = 0.0000 0.0000 0.5000 (   311 PWs)   bands (ev):

    -6.1430   1.9396   3.7847   3.7847

          k =-0.2500 0.2500 0.7500 (   311 PWs)   bands (ev):

    -5.1819  -0.0415   2.3125   3.5086

          k =-0.5000 0.5000 0.5000 (   302 PWs)   bands (ev):

    -5.4218  -0.6403   4.3483   4.3483

     highest occupied level (ev):     5.1761

     Writing output data file AlAs.save

                                                                                

     bravais-lattice index     =            2
     lattice parameter (alat)  =      10.5000  a.u.
     unit-cell volume          =     289.4062 (a.u.)^3
     number of atoms/cell      =            2
     number of atomic types    =            2
     kinetic-energy cut-off    =      16.0000  Ry
     charge density cut-off    =      64.0000  Ry
     convergence threshold     =      1.0E-14
     beta                      =       0.7000
     number of iterations used =            4
     Exchange-correlation      =  SLA  PZ   NOGX NOGC ( 1  1  0  0 0 0)


     celldm(1)=   10.50000  celldm(2)=    0.00000  celldm(3)=    0.00000
     celldm(4)=    0.00000  celldm(5)=    0.00000  celldm(6)=    0.00000

     crystal axes: (cart. coord. in units of alat)
               a(1) = ( -0.5000  0.0000  0.5000 )  
               a(2) = (  0.0000  0.5000  0.5000 )  
               a(3) = ( -0.5000  0.5000  0.0000 )  

     reciprocal axes: (cart. coord. in units 2 pi/alat)
               b(1) = ( -1.0000 -1.0000  1.0000 )  
               b(2) = (  1.0000  1.0000  1.0000 )  
               b(3) = ( -1.0000  1.0000 -1.0000 )  


     Atoms inside the unit cell: 

     Cartesian axes

     site n.  atom      mass           positions (alat units)
        1     Al  26.9800   tau(    1) = (    0.00000    0.00000    0.00000  )
        2     As  74.9200   tau(    2) = (    0.25000    0.25000    0.25000  )

     Computing dynamical matrix for 
                    q = (  -0.2500000   0.2500000  -0.2500000 )
 
      6 Sym.Ops. (no q -> -q+G )


     G cutoff =  178.7306  (   1224 G-vectors)     FFT grid: ( 20, 20, 20)
     number of k points=    20

     PseudoPot. # 1 for Al read from file:
     ./Al.pz-vbc.UPF
     MD5 check sum: 13b59ac2968bcb74bf87a15840bc9960
     Pseudo is Norm-conserving, Zval =  3.0
     Generated by new atomic code, or converted to UPF format
     Using radial grid of  171 points,  2 beta functions with: 
                l(1) =   0
                l(2) =   1

     PseudoPot. # 2 for As read from file:
     ./As.pz-bhs.UPF
     MD5 check sum: d9127a8b584737f42ec2fe47e3acdea8
     Pseudo is Norm-conserving, Zval =  5.0
     Generated by new atomic code, or converted to UPF format
     Using radial grid of  525 points,  2 beta functions with: 
                l(1) =   0
                l(2) =   1

     Mode symmetry, C_3v (3m)   point group:


     Atomic displacements:
     There are   4 irreducible representations

     Representation     1      1 modes -A_1  L_1  To be done

     Representation     2      1 modes -A_1  L_1  To be done

     Representation     3      2 modes -E    L_3  To be done

     Representation     4      2 modes -E    L_3  To be done



     Alpha used in Ewald sum =   0.7000
     PHONON       :     2.27s CPU         3.55s WALL



     Representation #  1 mode #   1

     Self-consistent Calculation

      iter #   1 total cpu time :     3.6 secs   av.it.:   6.2
      thresh= 1.000E-02 alpha_mix =  0.700 |ddv_scf|^2 =  3.084E-03

      iter #   2 total cpu time :     3.8 secs   av.it.:   7.6
      thresh= 5.553E-03 alpha_mix =  0.700 |ddv_scf|^2 =  2.964E-02

      iter #   3 total cpu time :     3.9 secs   av.it.:   6.8
      thresh= 1.000E-02 alpha_mix =  0.700 |ddv_scf|^2 =  6.314E-06

      iter #   4 total cpu time :     4.0 secs   av.it.:   7.2
      thresh= 2.513E-04 alpha_mix =  0.700 |ddv_scf|^2 =  1.376E-07

      iter #   5 total cpu time :     4.1 secs   av.it.:   7.6
      thresh= 3.709E-05 alpha_mix =  0.700 |ddv_scf|^2 =  4.182E-09

      iter #   6 total cpu time :     4.2 secs   av.it.:   7.0
      thresh= 6.467E-06 alpha_mix =  0.700 |ddv_scf|^2 =  5.082E-10

      iter #   7 total cpu time :     4.3 secs   av.it.:   7.1
      thresh= 2.254E-06 alpha_mix =  0.700 |ddv_scf|^2 =  3.657E-11

      iter #   8 total cpu time :     4.4 secs   av.it.:   7.2
      thresh= 6.047E-07 alpha_mix =  0.700 |ddv_scf|^2 =  2.286E-13

      iter #   9 total cpu time :     4.5 secs   av.it.:   7.4
      thresh= 4.782E-08 alpha_mix =  0.700 |ddv_scf|^2 =  5.768E-15

     End of self-consistent calculation

     Convergence has been achieved 


     Representation #  2 mode #   2

     Self-consistent Calculation

      iter #   1 total cpu time :     4.7 secs   av.it.:   5.6
      thresh= 1.000E-02 alpha_mix =  0.700 |ddv_scf|^2 =  6.514E-04

      iter #   2 total cpu time :     4.8 secs   av.it.:   7.6
      thresh= 2.552E-03 alpha_mix =  0.700 |ddv_scf|^2 =  5.928E-03

      iter #   3 total cpu time :     4.9 secs   av.it.:   6.2
      thresh= 7.699E-03 alpha_mix =  0.700 |ddv_scf|^2 =  2.186E-07

      iter #   4 total cpu time :     5.0 secs   av.it.:   8.2
      thresh= 4.675E-05 alpha_mix =  0.700 |ddv_scf|^2 =  8.049E-09

      iter #   5 total cpu time :     5.1 secs   av.it.:   8.1
      thresh= 8.972E-06 alpha_mix =  0.700 |ddv_scf|^2 =  1.745E-09

      iter #   6 total cpu time :     5.2 secs   av.it.:   6.9
      thresh= 4.177E-06 alpha_mix =  0.700 |ddv_scf|^2 =  3.746E-10

      iter #   7 total cpu time :     5.3 secs   av.it.:   7.4
      thresh= 1.935E-06 alpha_mix =  0.700 |ddv_scf|^2 =  1.806E-11

      iter #   8 total cpu time :     5.5 secs   av.it.:   7.5
      thresh= 4.249E-07 alpha_mix =  0.700 |ddv_scf|^2 =  4.906E-13

      iter #   9 total cpu time :     5.6 secs   av.it.:   7.6
      thresh= 7.005E-08 alpha_mix =  0.700 |ddv_scf|^2 =  1.342E-14

      iter #  10 total cpu time :     5.7 secs   av.it.:   7.7
      thresh= 1.158E-08 alpha_mix =  0.700 |ddv_scf|^2 =  1.287E-15

     End of self-consistent calculation

     Convergence has been achieved 


     Representation #  3 modes #   3  4

     Self-consistent Calculation

      iter #   1 total cpu time :     5.9 secs   av.it.:   5.9
      thresh= 1.000E-02 alpha_mix =  0.700 |ddv_scf|^2 =  1.311E-06

      iter #   2 total cpu time :     6.1 secs   av.it.:   9.0
      thresh= 1.145E-04 alpha_mix =  0.700 |ddv_scf|^2 =  9.090E-08

      iter #   3 total cpu time :     6.4 secs   av.it.:   9.0
      thresh= 3.015E-05 alpha_mix =  0.700 |ddv_scf|^2 =  8.908E-11

      iter #   4 total cpu time :     6.6 secs   av.it.:   9.1
      thresh= 9.438E-07 alpha_mix =  0.700 |ddv_scf|^2 =  1.650E-12

      iter #   5 total cpu time :     6.8 secs   av.it.:   8.9
      thresh= 1.285E-07 alpha_mix =  0.700 |ddv_scf|^2 =  1.868E-14

      iter #   6 total cpu time :     7.1 secs   av.it.:   9.2
      thresh= 1.367E-08 alpha_mix =  0.700 |ddv_scf|^2 =  8.910E-17

     End of self-consistent calculation

     Convergence has been achieved 


     Representation #  4 modes #   5  6

     Self-consistent Calculation

      iter #   1 total cpu time :     7.3 secs   av.it.:   5.0
      thresh= 1.000E-02 alpha_mix =  0.700 |ddv_scf|^2 =  1.108E-07

      iter #   2 total cpu time :     7.5 secs   av.it.:   9.5
      thresh= 3.328E-05 alpha_mix =  0.700 |ddv_scf|^2 =  4.507E-09

      iter #   3 total cpu time :     7.8 secs   av.it.:   9.2
      thresh= 6.713E-06 alpha_mix =  0.700 |ddv_scf|^2 =  1.323E-10

      iter #   4 total cpu time :     8.0 secs   av.it.:   9.1
      thresh= 1.150E-06 alpha_mix =  0.700 |ddv_scf|^2 =  6.941E-12

      iter #   5 total cpu time :     8.2 secs   av.it.:   8.8
      thresh= 2.635E-07 alpha_mix =  0.700 |ddv_scf|^2 =  1.154E-15

     End of self-consistent calculation

     Convergence has been achieved 
 
     Number of q in the star =    4
     List of q in the star:
          1  -0.250000000   0.250000000  -0.250000000
          2   0.250000000  -0.250000000  -0.250000000
          3  -0.250000000  -0.250000000   0.250000000
          4   0.250000000   0.250000000   0.250000000
     In addition there is the -q list: 
          1   0.250000000  -0.250000000   0.250000000
          2  -0.250000000   0.250000000   0.250000000
          3   0.250000000   0.250000000  -0.250000000
          4  -0.250000000  -0.250000000  -0.250000000

     Diagonalizing the dynamical matrix

     q = (   -0.250000000   0.250000000  -0.250000000 ) 

 **************************************************************************
     freq (    1) =       1.756398 [THz] =      58.587120 [cm-1]
     freq (    2) =       1.756398 [THz] =      58.587120 [cm-1]
     freq (    3) =       4.534201 [THz] =     151.244666 [cm-1]
     freq (    4) =      11.004587 [THz] =     367.073518 [cm-1]
     freq (    5) =      11.004587 [THz] =     367.073518 [cm-1]
     freq (    6) =      12.136899 [THz] =     404.843370 [cm-1]
 **************************************************************************

     Mode symmetry, C_3v (3m)   point group:

     freq (  1 -  2) =         58.6  [cm-1]   --> E    L_3           
     freq (  3 -  3) =        151.2  [cm-1]   --> A_1  L_1           
     freq (  4 -  5) =        367.1  [cm-1]   --> E    L_3           
     freq (  6 -  6) =        404.8  [cm-1]   --> A_1  L_1           

     Calculation of q =    0.5000000  -0.5000000   0.5000000
 
     Parallelization info
     --------------------
     sticks:   dense  smooth     PW     G-vecs:    dense   smooth      PW
     Min         120     120     42                 1221     1221     267
     Max         121     121     43                 1224     1224     270
     Sum         241     241     85                 2445     2445     537
 


     bravais-lattice index     =            2
     lattice parameter (alat)  =      10.5000  a.u.
     unit-cell volume          =     289.4062 (a.u.)^3
     number of atoms/cell      =            2
     number of atomic types    =            2
     number of electrons       =         8.00
     number of Kohn-Sham states=            4
     kinetic-energy cutoff     =      16.0000  Ry
     charge density cutoff     =      64.0000  Ry
     Exchange-correlation      =  SLA  PZ   NOGX NOGC ( 1  1  0  0 0 0)

     celldm(1)=  10.500000  celldm(2)=   0.000000  celldm(3)=   0.000000
     celldm(4)=   0.000000  celldm(5)=   0.000000  celldm(6)=   0.000000

     crystal axes: (cart. coord. in units of alat)
               a(1) = (  -0.500000   0.000000   0.500000 )  
               a(2) = (   0.000000   0.500000   0.500000 )  
               a(3) = (  -0.500000   0.500000   0.000000 )  

     reciprocal axes: (cart. coord. in units 2 pi/alat)
               b(1) = ( -1.000000 -1.000000  1.000000 )  
               b(2) = (  1.000000  1.000000  1.000000 )  
               b(3) = ( -1.000000  1.000000 -1.000000 )  


     PseudoPot. # 1 for Al read from file:
     ./Al.pz-vbc.UPF
     MD5 check sum: 13b59ac2968bcb74bf87a15840bc9960
     Pseudo is Norm-conserving, Zval =  3.0
     Generated by new atomic code, or converted to UPF format
     Using radial grid of  171 points,  2 beta functions with: 
                l(1) =   0
                l(2) =   1

     PseudoPot. # 2 for As read from file:
     ./As.pz-bhs.UPF
     MD5 check sum: d9127a8b584737f42ec2fe47e3acdea8
     Pseudo is Norm-conserving, Zval =  5.0
     Generated by new atomic code, or converted to UPF format
     Using radial grid of  525 points,  2 beta functions with: 
                l(1) =   0
                l(2) =   1

     atomic species   valence    mass     pseudopotential
        Al             3.00    26.98000     Al( 1.00)
        As             5.00    74.92000     As( 1.00)

     24 Sym. Ops. (no inversion) found



   Cartesian axes

     site n.     atom                  positions (alat units)
         1           Al  tau(   1) = (   0.0000000   0.0000000   0.0000000  )
         2           As  tau(   2) = (   0.2500000   0.2500000   0.2500000  )

     number of k points=    10
                       cart. coord. in units 2pi/alat
        k(    1) = (   0.2500000   0.2500000   0.2500000), wk =   0.3750000
        k(    2) = (   0.7500000  -0.2500000   0.7500000), wk =   0.0000000
        k(    3) = (   0.2500000   0.2500000   0.7500000), wk =   0.7500000
        k(    4) = (   0.7500000  -0.2500000   1.2500000), wk =   0.0000000
        k(    5) = (  -0.2500000   0.2500000  -0.2500000), wk =   0.1250000
        k(    6) = (   0.2500000  -0.2500000   0.2500000), wk =   0.0000000
        k(    7) = (  -0.7500000  -0.2500000   0.2500000), wk =   0.3750000
        k(    8) = (  -0.2500000  -0.7500000   0.7500000), wk =   0.0000000
        k(    9) = (  -0.7500000   0.2500000  -0.2500000), wk =   0.3750000
        k(   10) = (  -0.2500000  -0.2500000   0.2500000), wk =   0.0000000

     Dense  grid:     2445 G-vectors     FFT dimensions: (  20,  20,  20)

     Largest allocated arrays     est. size (Mb)     dimensions
        Kohn-Sham Wavefunctions         0.01 Mb     (     158,    4)
        NL pseudopotentials             0.02 Mb     (     158,    8)
        Each V/rho on FFT grid          0.06 Mb     (    4000)
        Each G-vector array             0.01 Mb     (    1224)
        G-vector shells                 0.00 Mb     (      61)
     Largest temporary arrays     est. size (Mb)     dimensions
        Auxiliary wavefunctions         0.04 Mb     (     158,   16)
        Each subspace H/S matrix        0.00 Mb     (      16,   16)
        Each <psi_i|beta_j> matrix      0.00 Mb     (       8,    4)

     The potential is recalculated from file :
     ./out/_ph0/AlAs.save/charge-density.dat

     Starting wfc are    8 atomic wfcs

     Band Structure Calculation
     Davidson diagonalization with overlap

     ethr =  1.25E-10,  avg # of iterations = 11.6

     total cpu time spent up to now is        0.6 secs

     End of band structure calculation

          k = 0.2500 0.2500 0.2500 (   311 PWs)   bands (ev):

    -6.3575   1.7035   4.6970   4.6970

          k = 0.7500-0.2500 0.7500 (   311 PWs)   bands (ev):

    -5.1819  -0.0415   2.3125   3.5086

          k = 0.2500 0.2500 0.7500 (   311 PWs)   bands (ev):

    -5.1819  -0.0415   2.3125   3.5086

          k = 0.7500-0.2500 1.2500 (   311 PWs)   bands (ev):

    -5.1819  -0.0415   2.3125   3.5086

          k =-0.2500 0.2500-0.2500 (   311 PWs)   bands (ev):

    -6.3575   1.7035   4.6970   4.6970

          k = 0.2500-0.2500 0.2500 (   311 PWs)   bands (ev):

    -6.3575   1.7035   4.6970   4.6970

          k =-0.7500-0.2500 0.2500 (   311 PWs)   bands (ev):

    -5.1819  -0.0415   2.3125   3.5086

          k =-0.2500-0.7500 0.7500 (   311 PWs)   bands (ev):

    -5.1819  -0.0415   2.3125   3.5086

          k =-0.7500 0.2500-0.2500 (   311 PWs)   bands (ev):

    -5.1819  -0.0415   2.3125   3.5086

          k =-0.2500-0.2500 0.2500 (   311 PWs)   bands (ev):

    -6.3575   1.7035   4.6970   4.6970

     highest occupied level (ev):     4.6970

     Writing output data file AlAs.save

                                                                                

     bravais-lattice index     =            2
     lattice parameter (alat)  =      10.5000  a.u.
     unit-cell volume          =     289.4062 (a.u.)^3
     number of atoms/cell      =            2
     number of atomic types    =            2
     kinetic-energy cut-off    =      16.0000  Ry
     charge density cut-off    =      64.0000  Ry
     convergence threshold     =      1.0E-14
     beta                      =       0.7000
     number of iterations used =            4
     Exchange-correlation      =  SLA  PZ   NOGX NOGC ( 1  1  0  0 0 0)


     celldm(1)=   10.50000  celldm(2)=    0.00000  celldm(3)=    0.00000
     celldm(4)=    0.00000  celldm(5)=    0.00000  celldm(6)=    0.00000

     crystal axes: (cart. coord. in units of alat)
               a(1) = ( -0.5000  0.0000  0.5000 )  
               a(2) = (  0.0000  0.5000  0.5000 )  
               a(3) = ( -0.5000  0.5000  0.0000 )  

     reciprocal axes: (cart. coord. in units 2 pi/alat)
               b(1) = ( -1.0000 -1.0000  1.0000 )  
               b(2) = (  1.0000  1.0000  1.0000 )  
               b(3) = ( -1.0000  1.0000 -1.0000 )  


     Atoms inside the unit cell: 

     Cartesian axes

     site n.  atom      mass           positions (alat units)
        1     Al  26.9800   tau(    1) = (    0.00000    0.00000    0.00000  )
        2     As  74.9200   tau(    2) = (    0.25000    0.25000    0.25000  )

     Computing dynamical matrix for 
                    q = (   0.5000000  -0.5000000   0.5000000 )
 
      7 Sym.Ops. (with q -> -q+G )


     G cutoff =  178.7306  (   1224 G-vectors)     FFT grid: ( 20, 20, 20)
     number of k points=    10

     PseudoPot. # 1 for Al read from file:
     ./Al.pz-vbc.UPF
     MD5 check sum: 13b59ac2968bcb74bf87a15840bc9960
     Pseudo is Norm-conserving, Zval =  3.0
     Generated by new atomic code, or converted to UPF format
     Using radial grid of  171 points,  2 beta functions with: 
                l(1) =   0
                l(2) =   1

     PseudoPot. # 2 for As read from file:
     ./As.pz-bhs.UPF
     MD5 check sum: d9127a8b584737f42ec2fe47e3acdea8
     Pseudo is Norm-conserving, Zval =  5.0
     Generated by new atomic code, or converted to UPF format
     Using radial grid of  525 points,  2 beta functions with: 
                l(1) =   0
                l(2) =   1

     Mode symmetry, C_3v (3m)   point group:


     Atomic displacements:
     There are   4 irreducible representations

     Representation     1      1 modes -A_1  L_1  To be done

     Representation     2      1 modes -A_1  L_1  To be done

     Representation     3      2 modes -E    L_3  To be done

     Representation     4      2 modes -E    L_3  To be done



     Alpha used in Ewald sum =   0.7000
     PHONON       :     6.13s CPU         8.60s WALL



     Representation #  1 mode #   1

     Self-consistent Calculation

      iter #   1 total cpu time :     8.7 secs   av.it.:   6.2
      thresh= 1.000E-02 alpha_mix =  0.700 |ddv_scf|^2 =  3.569E-04

      iter #   2 total cpu time :     8.8 secs   av.it.:   8.2
      thresh= 1.889E-03 alpha_mix =  0.700 |ddv_scf|^2 =  1.022E-03

      iter #   3 total cpu time :     8.8 secs   av.it.:   7.4
      thresh= 3.197E-03 alpha_mix =  0.700 |ddv_scf|^2 =  5.269E-08

      iter #   4 total cpu time :     8.9 secs   av.it.:   8.0
      thresh= 2.296E-05 alpha_mix =  0.700 |ddv_scf|^2 =  8.097E-09

      iter #   5 total cpu time :     9.0 secs   av.it.:   7.4
      thresh= 8.998E-06 alpha_mix =  0.700 |ddv_scf|^2 =  4.274E-11

      iter #   6 total cpu time :     9.0 secs   av.it.:   8.4
      thresh= 6.538E-07 alpha_mix =  0.700 |ddv_scf|^2 =  4.548E-12

      iter #   7 total cpu time :     9.1 secs   av.it.:   8.0
      thresh= 2.133E-07 alpha_mix =  0.700 |ddv_scf|^2 =  8.099E-15

     End of self-consistent calculation

     Convergence has been achieved 


     Representation #  2 mode #   2

     Self-consistent Calculation

      iter #   1 total cpu time :     9.2 secs   av.it.:   5.4
      thresh= 1.000E-02 alpha_mix =  0.700 |ddv_scf|^2 =  5.799E-05

      iter #   2 total cpu time :     9.2 secs   av.it.:   8.2
      thresh= 7.615E-04 alpha_mix =  0.700 |ddv_scf|^2 =  1.451E-04

      iter #   3 total cpu time :     9.3 secs   av.it.:   7.4
      thresh= 1.204E-03 alpha_mix =  0.700 |ddv_scf|^2 =  6.744E-07

      iter #   4 total cpu time :     9.4 secs   av.it.:   7.6
      thresh= 8.212E-05 alpha_mix =  0.700 |ddv_scf|^2 =  4.031E-09

      iter #   5 total cpu time :     9.5 secs   av.it.:   7.8
      thresh= 6.349E-06 alpha_mix =  0.700 |ddv_scf|^2 =  7.150E-11

      iter #   6 total cpu time :     9.6 secs   av.it.:   8.4
      thresh= 8.456E-07 alpha_mix =  0.700 |ddv_scf|^2 =  1.224E-12

      iter #   7 total cpu time :     9.7 secs   av.it.:   8.0
      thresh= 1.106E-07 alpha_mix =  0.700 |ddv_scf|^2 =  2.323E-14

      iter #   8 total cpu time :     9.7 secs   av.it.:   7.6
      thresh= 1.524E-08 alpha_mix =  0.700 |ddv_scf|^2 =  2.173E-16

     End of self-consistent calculation

     Convergence has been achieved 


     Representation #  3 modes #   3  4

     Self-consistent Calculation

      iter #   1 total cpu time :     9.8 secs   av.it.:   6.1
      thresh= 1.000E-02 alpha_mix =  0.700 |ddv_scf|^2 =  1.540E-06

      iter #   2 total cpu time :    10.0 secs   av.it.:   9.2
      thresh= 1.241E-04 alpha_mix =  0.700 |ddv_scf|^2 =  1.304E-07

      iter #   3 total cpu time :    10.1 secs   av.it.:   9.0
      thresh= 3.611E-05 alpha_mix =  0.700 |ddv_scf|^2 =  8.945E-11

      iter #   4 total cpu time :    10.3 secs   av.it.:   9.2
      thresh= 9.458E-07 alpha_mix =  0.700 |ddv_scf|^2 =  7.028E-13

      iter #   5 total cpu time :    10.4 secs   av.it.:   8.9
      thresh= 8.383E-08 alpha_mix =  0.700 |ddv_scf|^2 =  1.384E-14

      iter #   6 total cpu time :    10.5 secs   av.it.:   9.2
      thresh= 1.176E-08 alpha_mix =  0.700 |ddv_scf|^2 =  3.776E-17

     End of self-consistent calculation

     Convergence has been achieved 


     Representation #  4 modes #   5  6

     Self-consistent Calculation

      iter #   1 total cpu time :    10.7 secs   av.it.:   4.8
      thresh= 1.000E-02 alpha_mix =  0.700 |ddv_scf|^2 =  1.481E-07

      iter #   2 total cpu time :    10.8 secs   av.it.:   9.0
      thresh= 3.848E-05 alpha_mix =  0.700 |ddv_scf|^2 =  8.857E-09

      iter #   3 total cpu time :    11.0 secs   av.it.:   9.0
      thresh= 9.411E-06 alpha_mix =  0.700 |ddv_scf|^2 =  1.468E-10

      iter #   4 total cpu time :    11.1 secs   av.it.:   9.1
      thresh= 1.212E-06 alpha_mix =  0.700 |ddv_scf|^2 =  7.513E-12

      iter #   5 total cpu time :    11.3 secs   av.it.:   8.2
      thresh= 2.741E-07 alpha_mix =  0.700 |ddv_scf|^2 =  2.643E-15

     End of self-consistent calculation

     Convergence has been achieved 
 
     Number of q in the star =    4
     List of q in the star:
          1   0.500000000  -0.500000000   0.500000000
          2  -0.500000000   0.500000000   0.500000000
          3   0.500000000   0.500000000  -0.500000000
          4  -0.500000000  -0.500000000  -0.500000000

     Diagonalizing the dynamical matrix

     q = (    0.500000000  -0.500000000   0.500000000 ) 

 **************************************************************************
     freq (    1) =       2.011634 [THz] =      67.100873 [cm-1]
     freq (    2) =       2.011634 [THz] =      67.100873 [cm-1]
     freq (    3) =       6.494399 [THz] =     216.629822 [cm-1]
     freq (    4) =      10.940873 [THz] =     364.948232 [cm-1]
     freq (    5) =      10.940873 [THz] =     364.948232 [cm-1]
     freq (    6) =      11.551144 [THz] =     385.304702 [cm-1]
 **************************************************************************

     Mode symmetry, C_3v (3m)   point group:

     freq (  1 -  2) =         67.1  [cm-1]   --> E    L_3           
     freq (  3 -  3) =        216.6  [cm-1]   --> A_1  L_1           
     freq (  4 -  5) =        364.9  [cm-1]   --> E    L_3           
     freq (  6 -  6) =        385.3  [cm-1]   --> A_1  L_1           

     Calculation of q =    0.0000000   0.5000000   0.0000000
 
     Parallelization info
     --------------------
     sticks:   dense  smooth     PW     G-vecs:    dense   smooth      PW
     Min         120     120     42                 1221     1221     264
     Max         121     121     43                 1224     1224     267
     Sum         241     241     85                 2445     2445     531
 


     bravais-lattice index     =            2
     lattice parameter (alat)  =      10.5000  a.u.
     unit-cell volume          =     289.4062 (a.u.)^3
     number of atoms/cell      =            2
     number of atomic types    =            2
     number of electrons       =         8.00
     number of Kohn-Sham states=            4
     kinetic-energy cutoff     =      16.0000  Ry
     charge density cutoff     =      64.0000  Ry
     Exchange-correlation      =  SLA  PZ   NOGX NOGC ( 1  1  0  0 0 0)

     celldm(1)=  10.500000  celldm(2)=   0.000000  celldm(3)=   0.000000
     celldm(4)=   0.000000  celldm(5)=   0.000000  celldm(6)=   0.000000

     crystal axes: (cart. coord. in units of alat)
               a(1) = (  -0.500000   0.000000   0.500000 )  
               a(2) = (   0.000000   0.500000   0.500000 )  
               a(3) = (  -0.500000   0.500000   0.000000 )  

     reciprocal axes: (cart. coord. in units 2 pi/alat)
               b(1) = ( -1.000000 -1.000000  1.000000 )  
               b(2) = (  1.000000  1.000000  1.000000 )  
               b(3) = ( -1.000000  1.000000 -1.000000 )  


     PseudoPot. # 1 for Al read from file:
     ./Al.pz-vbc.UPF
     MD5 check sum: 13b59ac2968bcb74bf87a15840bc9960
     Pseudo is Norm-conserving, Zval =  3.0
     Generated by new atomic code, or converted to UPF format
     Using radial grid of  171 points,  2 beta functions with: 
                l(1) =   0
                l(2) =   1

     PseudoPot. # 2 for As read from file:
     ./As.pz-bhs.UPF
     MD5 check sum: d9127a8b584737f42ec2fe47e3acdea8
     Pseudo is Norm-conserving, Zval =  5.0
     Generated by new atomic code, or converted to UPF format
     Using radial grid of  525 points,  2 beta functions with: 
                l(1) =   0
                l(2) =   1

     atomic species   valence    mass     pseudopotential
        Al             3.00    26.98000     Al( 1.00)
        As             5.00    74.92000     As( 1.00)

     24 Sym. Ops. (no inversion) found



   Cartesian axes

     site n.     atom                  positions (alat units)
         1           Al  tau(   1) = (   0.0000000   0.0000000   0.0000000  )
         2           As  tau(   2) = (   0.2500000   0.2500000   0.2500000  )

     number of k points=    24
                       cart. coord. in units 2pi/alat
        k(    1) = (   0.2500000   0.2500000   0.2500000), wk =   0.1250000
        k(    2) = (   0.2500000   0.7500000   0.2500000), wk =   0.0000000
        k(    3) = (   0.2500000   0.2500000   0.7500000), wk =   0.2500000
        k(    4) = (   0.2500000   0.7500000   0.7500000), wk =   0.0000000
        k(    5) = (  -0.2500000  -0.2500000   0.2500000), wk =   0.1250000
        k(    6) = (  -0.2500000   0.2500000   0.2500000), wk =   0.0000000
        k(    7) = (  -0.2500000  -0.2500000  -0.2500000), wk =   0.1250000
        k(    8) = (  -0.2500000   0.2500000  -0.2500000), wk =   0.0000000
        k(    9) = (   0.2500000   0.2500000  -0.2500000), wk =   0.1250000
        k(   10) = (   0.2500000   0.7500000  -0.2500000), wk =   0.0000000
        k(   11) = (  -0.2500000  -0.2500000   0.7500000), wk =   0.2500000
        k(   12) = (  -0.2500000   0.2500000   0.7500000), wk =   0.0000000
        k(   13) = (  -0.2500000  -0.7500000   0.2500000), wk =   0.1250000
        k(   14) = (  -0.2500000  -0.2500000   0.2500000), wk =   0.0000000
        k(   15) = (  -0.2500000   0.7500000  -0.2500000), wk =   0.1250000
        k(   16) = (  -0.2500000   1.2500000  -0.2500000), wk =   0.0000000
        k(   17) = (  -0.2500000  -0.2500000  -0.7500000), wk =   0.2500000
        k(   18) = (  -0.2500000   0.2500000  -0.7500000), wk =   0.0000000
        k(   19) = (   0.2500000   0.2500000  -0.7500000), wk =   0.2500000
        k(   20) = (   0.2500000   0.7500000  -0.7500000), wk =   0.0000000
        k(   21) = (  -0.2500000   0.7500000   0.2500000), wk =   0.1250000
        k(   22) = (  -0.2500000   1.2500000   0.2500000), wk =   0.0000000
        k(   23) = (  -0.2500000  -0.7500000  -0.2500000), wk =   0.1250000
        k(   24) = (  -0.2500000  -0.2500000  -0.2500000), wk =   0.0000000

     Dense  grid:     2445 G-vectors     FFT dimensions: (  20,  20,  20)

     Largest allocated arrays     est. size (Mb)     dimensions
        Kohn-Sham Wavefunctions         0.01 Mb     (     163,    4)
        NL pseudopotentials             0.02 Mb     (     163,    8)
        Each V/rho on FFT grid          0.06 Mb     (    4000)
        Each G-vector array             0.01 Mb     (    1224)
        G-vector shells                 0.00 Mb     (      61)
     Largest temporary arrays     est. size (Mb)     dimensions
        Auxiliary wavefunctions         0.04 Mb     (     163,   16)
        Each subspace H/S matrix        0.00 Mb     (      16,   16)
        Each <psi_i|beta_j> matrix      0.00 Mb     (       8,    4)

     The potential is recalculated from file :
     ./out/_ph0/AlAs.save/charge-density.dat

     Starting wfc are    8 atomic wfcs

     Band Structure Calculation
     Davidson diagonalization with overlap

     ethr =  1.25E-10,  avg # of iterations = 11.7

     total cpu time spent up to now is        1.0 secs

     End of band structure calculation

          k = 0.2500 0.2500 0.2500 (   311 PWs)   bands (ev):

    -6.3575   1.7035   4.6970   4.6970

          k = 0.2500 0.7500 0.2500 (   311 PWs)   bands (ev):

    -5.1819  -0.0415   2.3125   3.5086

          k = 0.2500 0.2500 0.7500 (   311 PWs)   bands (ev):

    -5.1819  -0.0415   2.3125   3.5086

          k = 0.2500 0.7500 0.7500 (   311 PWs)   bands (ev):

    -5.1819  -0.0415   2.3125   3.5086

          k =-0.2500-0.2500 0.2500 (   311 PWs)   bands (ev):

    -6.3575   1.7035   4.6970   4.6970

          k =-0.2500 0.2500 0.2500 (   311 PWs)   bands (ev):

    -6.3575   1.7035   4.6970   4.6970

          k =-0.2500-0.2500-0.2500 (   311 PWs)   bands (ev):

    -6.3575   1.7035   4.6970   4.6970

          k =-0.2500 0.2500-0.2500 (   311 PWs)   bands (ev):

    -6.3575   1.7035   4.6970   4.6970

          k = 0.2500 0.2500-0.2500 (   311 PWs)   bands (ev):

    -6.3575   1.7035   4.6970   4.6970

          k = 0.2500 0.7500-0.2500 (   311 PWs)   bands (ev):

    -5.1819  -0.0415   2.3125   3.5086

          k =-0.2500-0.2500 0.7500 (   311 PWs)   bands (ev):

    -5.1819  -0.0415   2.3125   3.5086

          k =-0.2500 0.2500 0.7500 (   311 PWs)   bands (ev):

    -5.1819  -0.0415   2.3125   3.5086

          k =-0.2500-0.7500 0.2500 (   311 PWs)   bands (ev):

    -5.1819  -0.0415   2.3125   3.5086

          k =-0.2500-0.2500 0.2500 (   311 PWs)   bands (ev):

    -6.3575   1.7035   4.6970   4.6970

          k =-0.2500 0.7500-0.2500 (   311 PWs)   bands (ev):

    -5.1819  -0.0415   2.3125   3.5086

          k =-0.2500 1.2500-0.2500 (   311 PWs)   bands (ev):

    -5.1819  -0.0415   2.3125   3.5086

          k =-0.2500-0.2500-0.7500 (   311 PWs)   bands (ev):

    -5.1819  -0.0415   2.3125   3.5086

          k =-0.2500 0.2500-0.7500 (   311 PWs)   bands (ev):

    -5.1819  -0.0415   2.3125   3.5086

          k = 0.2500 0.2500-0.7500 (   311 PWs)   bands (ev):

    -5.1819  -0.0415   2.3125   3.5086

          k = 0.2500 0.7500-0.7500 (   311 PWs)   bands (ev):

    -5.1819  -0.0415   2.3125   3.5086

          k =-0.2500 0.7500 0.2500 (   311 PWs)   bands (ev):

    -5.1819  -0.0415   2.3125   3.5086

          k =-0.2500 1.2500 0.2500 (   311 PWs)   bands (ev):

    -5.1819  -0.0415   2.3125   3.5086

          k =-0.2500-0.7500-0.2500 (   311 PWs)   bands (ev):

    -5.1819  -0.0415   2.3125   3.5086

          k =-0.2500-0.2500-0.2500 (   311 PWs)   bands (ev):

    -6.3575   1.7035   4.6970   4.6970

     highest occupied level (ev):     4.6970

     Writing output data file AlAs.save

                                                                                

     bravais-lattice index     =            2
     lattice parameter (alat)  =      10.5000  a.u.
     unit-cell volume          =     289.4062 (a.u.)^3
     number of atoms/cell      =            2
     number of atomic types    =            2
     kinetic-energy cut-off    =      16.0000  Ry
     charge density cut-off    =      64.0000  Ry
     convergence threshold     =      1.0E-14
     beta                      =       0.7000
     number of iterations used =            4
     Exchange-correlation      =  SLA  PZ   NOGX NOGC ( 1  1  0  0 0 0)


     celldm(1)=   10.50000  celldm(2)=    0.00000  celldm(3)=    0.00000
     celldm(4)=    0.00000  celldm(5)=    0.00000  celldm(6)=    0.00000

     crystal axes: (cart. coord. in units of alat)
               a(1) = ( -0.5000  0.0000  0.5000 )  
               a(2) = (  0.0000  0.5000  0.5000 )  
               a(3) = ( -0.5000  0.5000  0.0000 )  

     reciprocal axes: (cart. coord. in units 2 pi/alat)
               b(1) = ( -1.0000 -1.0000  1.0000 )  
               b(2) = (  1.0000  1.0000  1.0000 )  
               b(3) = ( -1.0000  1.0000 -1.0000 )  


     Atoms inside the unit cell: 

     Cartesian axes

     site n.  atom      mass           positions (alat units)
        1     Al  26.9800   tau(    1) = (    0.00000    0.00000    0.00000  )
        2     As  74.9200   tau(    2) = (    0.25000    0.25000    0.25000  )

     Computing dynamical matrix for 
                    q = (   0.0000000   0.5000000   0.0000000 )
 
      4 Sym.Ops. (no q -> -q+G )


     G cutoff =  178.7306  (   1224 G-vectors)     FFT grid: ( 20, 20, 20)
     number of k points=    24

     PseudoPot. # 1 for Al read from file:
     ./Al.pz-vbc.UPF
     MD5 check sum: 13b59ac2968bcb74bf87a15840bc9960
     Pseudo is Norm-conserving, Zval =  3.0
     Generated by new atomic code, or converted to UPF format
     Using radial grid of  171 points,  2 beta functions with: 
                l(1) =   0
                l(2) =   1

     PseudoPot. # 2 for As read from file:
     ./As.pz-bhs.UPF
     MD5 check sum: d9127a8b584737f42ec2fe47e3acdea8
     Pseudo is Norm-conserving, Zval =  5.0
     Generated by new atomic code, or converted to UPF format
     Using radial grid of  525 points,  2 beta functions with: 
                l(1) =   0
                l(2) =   1

     Mode symmetry, C_2v (mm2)  point group:


     Atomic displacements:
     There are   6 irreducible representations

     Representation     1      1 modes -A_1  D_1  S_1  To be done

     Representation     2      1 modes -A_1  D_1  S_1  To be done

     Representation     3      1 modes -B_1  D_3  S_3  To be done

     Representation     4      1 modes -B_1  D_3  S_3  To be done

     Representation     5      1 modes -B_2  D_4  S_4  To be done

     Representation     6      1 modes -B_2  D_4  S_4  To be done



     Alpha used in Ewald sum =   0.7000
     PHONON       :     8.36s CPU        11.94s WALL



     Representation #  1 mode #   1

     Self-consistent Calculation

      iter #   1 total cpu time :    12.0 secs   av.it.:   6.5
      thresh= 1.000E-02 alpha_mix =  0.700 |ddv_scf|^2 =  1.919E-03

      iter #   2 total cpu time :    12.2 secs   av.it.:   8.0
      thresh= 4.381E-03 alpha_mix =  0.700 |ddv_scf|^2 =  1.597E-02

      iter #   3 total cpu time :    12.3 secs   av.it.:   7.1
      thresh= 1.000E-02 alpha_mix =  0.700 |ddv_scf|^2 =  2.109E-06

      iter #   4 total cpu time :    12.5 secs   av.it.:   8.3
      thresh= 1.452E-04 alpha_mix =  0.700 |ddv_scf|^2 =  2.566E-08

      iter #   5 total cpu time :    12.7 secs   av.it.:   8.7
      thresh= 1.602E-05 alpha_mix =  0.700 |ddv_scf|^2 =  6.938E-11

      iter #   6 total cpu time :    12.9 secs   av.it.:   8.2
      thresh= 8.329E-07 alpha_mix =  0.700 |ddv_scf|^2 =  7.433E-11

      iter #   7 total cpu time :    13.0 secs   av.it.:   7.2
      thresh= 8.621E-07 alpha_mix =  0.700 |ddv_scf|^2 =  3.618E-11

      iter #   8 total cpu time :    13.1 secs   av.it.:   7.2
      thresh= 6.015E-07 alpha_mix =  0.700 |ddv_scf|^2 =  4.463E-15

     End of self-consistent calculation

     Convergence has been achieved 


     Representation #  2 mode #   2

     Self-consistent Calculation

      iter #   1 total cpu time :    13.3 secs   av.it.:   5.7
      thresh= 1.000E-02 alpha_mix =  0.700 |ddv_scf|^2 =  3.752E-04

      iter #   2 total cpu time :    13.4 secs   av.it.:   7.9
      thresh= 1.937E-03 alpha_mix =  0.700 |ddv_scf|^2 =  2.909E-03

      iter #   3 total cpu time :    13.5 secs   av.it.:   6.7
      thresh= 5.394E-03 alpha_mix =  0.700 |ddv_scf|^2 =  5.634E-07

      iter #   4 total cpu time :    13.7 secs   av.it.:   7.8
      thresh= 7.506E-05 alpha_mix =  0.700 |ddv_scf|^2 =  5.639E-09

      iter #   5 total cpu time :    13.8 secs   av.it.:   8.8
      thresh= 7.509E-06 alpha_mix =  0.700 |ddv_scf|^2 =  5.788E-11

      iter #   6 total cpu time :    13.9 secs   av.it.:   8.4
      thresh= 7.608E-07 alpha_mix =  0.700 |ddv_scf|^2 =  6.861E-11

      iter #   7 total cpu time :    14.1 secs   av.it.:   7.2
      thresh= 8.283E-07 alpha_mix =  0.700 |ddv_scf|^2 =  3.054E-11

      iter #   8 total cpu time :    14.3 secs   av.it.:   7.2
      thresh= 5.526E-07 alpha_mix =  0.700 |ddv_scf|^2 =  2.693E-14

      iter #   9 total cpu time :    14.4 secs   av.it.:   7.7
      thresh= 1.641E-08 alpha_mix =  0.700 |ddv_scf|^2 =  1.792E-16

     End of self-consistent calculation

     Convergence has been achieved 


     Representation #  3 mode #   3

     Self-consistent Calculation

      iter #   1 total cpu time :    14.5 secs   av.it.:   4.9
      thresh= 1.000E-02 alpha_mix =  0.700 |ddv_scf|^2 =  1.095E-06

      iter #   2 total cpu time :    14.6 secs   av.it.:   8.4
      thresh= 1.046E-04 alpha_mix =  0.700 |ddv_scf|^2 =  1.263E-07

      iter #   3 total cpu time :    14.8 secs   av.it.:   8.2
      thresh= 3.553E-05 alpha_mix =  0.700 |ddv_scf|^2 =  6.593E-10

      iter #   4 total cpu time :    14.9 secs   av.it.:   8.0
      thresh= 2.568E-06 alpha_mix =  0.700 |ddv_scf|^2 =  2.111E-11

      iter #   5 total cpu time :    15.0 secs   av.it.:   7.9
      thresh= 4.595E-07 alpha_mix =  0.700 |ddv_scf|^2 =  3.822E-15

     End of self-consistent calculation

     Convergence has been achieved 


     Representation #  4 mode #   4

     Self-consistent Calculation

      iter #   1 total cpu time :    15.2 secs   av.it.:   5.8
      thresh= 1.000E-02 alpha_mix =  0.700 |ddv_scf|^2 =  8.766E-06

      iter #   2 total cpu time :    15.3 secs   av.it.:   8.3
      thresh= 2.961E-04 alpha_mix =  0.700 |ddv_scf|^2 =  1.179E-06

      iter #   3 total cpu time :    15.4 secs   av.it.:   8.1
      thresh= 1.086E-04 alpha_mix =  0.700 |ddv_scf|^2 =  3.851E-10

      iter #   4 total cpu time :    15.6 secs   av.it.:   8.0
      thresh= 1.962E-06 alpha_mix =  0.700 |ddv_scf|^2 =  1.531E-11

      iter #   5 total cpu time :    15.8 secs   av.it.:   8.2
      thresh= 3.913E-07 alpha_mix =  0.700 |ddv_scf|^2 =  6.697E-14

      iter #   6 total cpu time :    15.9 secs   av.it.:   8.6
      thresh= 2.588E-08 alpha_mix =  0.700 |ddv_scf|^2 =  2.419E-16

     End of self-consistent calculation

     Convergence has been achieved 


     Representation #  5 mode #   5

     Self-consistent Calculation

      iter #   1 total cpu time :    16.1 secs   av.it.:   5.8
      thresh= 1.000E-02 alpha_mix =  0.700 |ddv_scf|^2 =  8.766E-06

      iter #   2 total cpu time :    16.2 secs   av.it.:   8.4
      thresh= 2.961E-04 alpha_mix =  0.700 |ddv_scf|^2 =  1.179E-06

      iter #   3 total cpu time :    16.3 secs   av.it.:   8.2
      thresh= 1.086E-04 alpha_mix =  0.700 |ddv_scf|^2 =  3.851E-10

      iter #   4 total cpu time :    16.5 secs   av.it.:   8.0
      thresh= 1.962E-06 alpha_mix =  0.700 |ddv_scf|^2 =  1.525E-11

      iter #   5 total cpu time :    16.6 secs   av.it.:   8.2
      thresh= 3.905E-07 alpha_mix =  0.700 |ddv_scf|^2 =  6.618E-14

      iter #   6 total cpu time :    16.7 secs   av.it.:   8.4
      thresh= 2.573E-08 alpha_mix =  0.700 |ddv_scf|^2 =  2.366E-16

     End of self-consistent calculation

     Convergence has been achieved 


     Representation #  6 mode #   6

     Self-consistent Calculation

      iter #   1 total cpu time :    16.8 secs   av.it.:   4.9
      thresh= 1.000E-02 alpha_mix =  0.700 |ddv_scf|^2 =  1.095E-06

      iter #   2 total cpu time :    17.0 secs   av.it.:   8.4
      thresh= 1.046E-04 alpha_mix =  0.700 |ddv_scf|^2 =  1.262E-07

      iter #   3 total cpu time :    17.1 secs   av.it.:   8.3
      thresh= 3.552E-05 alpha_mix =  0.700 |ddv_scf|^2 =  6.601E-10

      iter #   4 total cpu time :    17.3 secs   av.it.:   7.9
      thresh= 2.569E-06 alpha_mix =  0.700 |ddv_scf|^2 =  2.116E-11

      iter #   5 total cpu time :    17.4 secs   av.it.:   7.8
      thresh= 4.600E-07 alpha_mix =  0.700 |ddv_scf|^2 =  3.772E-15

     End of self-consistent calculation

     Convergence has been achieved 
 
     Number of q in the star =    6
     List of q in the star:
          1   0.000000000   0.500000000   0.000000000
          2  -0.500000000   0.000000000   0.000000000
          3   0.000000000  -0.500000000   0.000000000
          4   0.000000000   0.000000000   0.500000000
          5   0.000000000   0.000000000  -0.500000000
          6   0.500000000   0.000000000   0.000000000

     Diagonalizing the dynamical matrix

     q = (    0.000000000   0.500000000   0.000000000 ) 

 **************************************************************************
     freq (    1) =       2.417615 [THz] =      80.642951 [cm-1]
     freq (    2) =       2.417615 [THz] =      80.642951 [cm-1]
     freq (    3) =       4.605855 [THz] =     153.634772 [cm-1]
     freq (    4) =      10.666406 [THz] =     355.793005 [cm-1]
     freq (    5) =      10.666406 [THz] =     355.793005 [cm-1]
     freq (    6) =      12.371287 [THz] =     412.661700 [cm-1]
 **************************************************************************

     Mode symmetry, C_2v (mm2)  point group:

     freq (  1 -  1) =         80.6  [cm-1]   --> B_1  D_3  S_3      
     freq (  2 -  2) =         80.6  [cm-1]   --> B_2  D_4  S_4      
     freq (  3 -  3) =        153.6  [cm-1]   --> A_1  D_1  S_1      
     freq (  4 -  4) =        355.8  [cm-1]   --> B_1  D_3  S_3      
     freq (  5 -  5) =        355.8  [cm-1]   --> B_2  D_4  S_4      
     freq (  6 -  6) =        412.7  [cm-1]   --> A_1  D_1  S_1      

     Calculation of q =    0.7500000  -0.2500000   0.7500000
 
     Parallelization info
     --------------------
     sticks:   dense  smooth     PW     G-vecs:    dense   smooth      PW
     Min         120     120     48                 1221     1221     322
     Max         121     121     49                 1224     1224     323
     Sum         241     241     97                 2445     2445     645
 


     bravais-lattice index     =            2
     lattice parameter (alat)  =      10.5000  a.u.
     unit-cell volume          =     289.4062 (a.u.)^3
     number of atoms/cell      =            2
     number of atomic types    =            2
     number of electrons       =         8.00
     number of Kohn-Sham states=            4
     kinetic-energy cutoff     =      16.0000  Ry
     charge density cutoff     =      64.0000  Ry
     Exchange-correlation      =  SLA  PZ   NOGX NOGC ( 1  1  0  0 0 0)

     celldm(1)=  10.500000  celldm(2)=   0.000000  celldm(3)=   0.000000
     celldm(4)=   0.000000  celldm(5)=   0.000000  celldm(6)=   0.000000

     crystal axes: (cart. coord. in units of alat)
               a(1) = (  -0.500000   0.000000   0.500000 )  
               a(2) = (   0.000000   0.500000   0.500000 )  
               a(3) = (  -0.500000   0.500000   0.000000 )  

     reciprocal axes: (cart. coord. in units 2 pi/alat)
               b(1) = ( -1.000000 -1.000000  1.000000 )  
               b(2) = (  1.000000  1.000000  1.000000 )  
               b(3) = ( -1.000000  1.000000 -1.000000 )  


     PseudoPot. # 1 for Al read from file:
     ./Al.pz-vbc.UPF
     MD5 check sum: 13b59ac2968bcb74bf87a15840bc9960
     Pseudo is Norm-conserving, Zval =  3.0
     Generated by new atomic code, or converted to UPF format
     Using radial grid of  171 points,  2 beta functions with: 
                l(1) =   0
                l(2) =   1

     PseudoPot. # 2 for As read from file:
     ./As.pz-bhs.UPF
     MD5 check sum: d9127a8b584737f42ec2fe47e3acdea8
     Pseudo is Norm-conserving, Zval =  5.0
     Generated by new atomic code, or converted to UPF format
     Using radial grid of  525 points,  2 beta functions with: 
                l(1) =   0
                l(2) =   1

     atomic species   valence    mass     pseudopotential
        Al             3.00    26.98000     Al( 1.00)
        As             5.00    74.92000     As( 1.00)

     24 Sym. Ops. (no inversion) found



   Cartesian axes

     site n.     atom                  positions (alat units)
         1           Al  tau(   1) = (   0.0000000   0.0000000   0.0000000  )
         2           As  tau(   2) = (   0.2500000   0.2500000   0.2500000  )

     number of k points=    40
                       cart. coord. in units 2pi/alat
        k(    1) = (   0.2500000   0.2500000   0.2500000), wk =   0.0625000
        k(    2) = (   1.0000000   0.0000000   1.0000000), wk =   0.0000000
        k(    3) = (   0.2500000   0.2500000   0.7500000), wk =   0.1250000
        k(    4) = (   1.0000000   0.0000000   1.5000000), wk =   0.0000000
        k(    5) = (  -0.2500000   0.2500000  -0.2500000), wk =   0.0625000
        k(    6) = (   0.5000000   0.0000000   0.5000000), wk =   0.0000000
        k(    7) = (  -0.2500000  -0.2500000   0.2500000), wk =   0.1250000
        k(    8) = (   0.5000000  -0.5000000   1.0000000), wk =   0.0000000
        k(    9) = (  -0.2500000  -0.2500000  -0.2500000), wk =   0.0625000
        k(   10) = (   0.5000000  -0.5000000   0.5000000), wk =   0.0000000
        k(   11) = (   0.2500000   0.2500000  -0.2500000), wk =   0.1250000
        k(   12) = (   1.0000000   0.0000000   0.5000000), wk =   0.0000000
        k(   13) = (   0.2500000  -0.2500000   0.2500000), wk =   0.0625000
        k(   14) = (   1.0000000  -0.5000000   1.0000000), wk =   0.0000000
        k(   15) = (  -0.2500000   0.2500000  -0.7500000), wk =   0.1250000
        k(   16) = (   0.5000000   0.0000000   0.0000000), wk =   0.0000000
        k(   17) = (  -0.2500000  -0.2500000   0.7500000), wk =   0.1250000
        k(   18) = (   0.5000000  -0.5000000   1.5000000), wk =   0.0000000
        k(   19) = (  -0.2500000  -0.7500000   0.2500000), wk =   0.1250000
        k(   20) = (   0.5000000  -1.0000000   1.0000000), wk =   0.0000000
        k(   21) = (  -0.7500000  -0.2500000   0.2500000), wk =   0.1250000
        k(   22) = (   0.0000000  -0.5000000   1.0000000), wk =   0.0000000
        k(   23) = (  -0.2500000   0.7500000  -0.2500000), wk =   0.0625000
        k(   24) = (   0.5000000   0.5000000   0.5000000), wk =   0.0000000
        k(   25) = (   0.2500000   0.7500000   0.2500000), wk =   0.0625000
        k(   26) = (   1.0000000   0.5000000   1.0000000), wk =   0.0000000
        k(   27) = (  -0.2500000  -0.2500000  -0.7500000), wk =   0.1250000
        k(   28) = (   0.5000000  -0.5000000   0.0000000), wk =   0.0000000
        k(   29) = (   0.2500000   0.2500000  -0.7500000), wk =   0.1250000
        k(   30) = (   1.0000000   0.0000000   0.0000000), wk =   0.0000000
        k(   31) = (   0.2500000  -0.2500000   0.7500000), wk =   0.1250000
        k(   32) = (   1.0000000  -0.5000000   1.5000000), wk =   0.0000000
        k(   33) = (  -0.2500000   0.2500000   0.7500000), wk =   0.1250000
        k(   34) = (   0.5000000   0.0000000   1.5000000), wk =   0.0000000
        k(   35) = (  -0.2500000   0.7500000   0.2500000), wk =   0.1250000
        k(   36) = (   0.5000000   0.5000000   1.0000000), wk =   0.0000000
        k(   37) = (  -0.2500000  -0.7500000  -0.2500000), wk =   0.0625000
        k(   38) = (   0.5000000  -1.0000000   0.5000000), wk =   0.0000000
        k(   39) = (   0.2500000  -0.7500000   0.2500000), wk =   0.0625000
        k(   40) = (   1.0000000  -1.0000000   1.0000000), wk =   0.0000000

     Dense  grid:     2445 G-vectors     FFT dimensions: (  20,  20,  20)

     Largest allocated arrays     est. size (Mb)     dimensions
        Kohn-Sham Wavefunctions         0.01 Mb     (     165,    4)
        NL pseudopotentials             0.02 Mb     (     165,    8)
        Each V/rho on FFT grid          0.06 Mb     (    4000)
        Each G-vector array             0.01 Mb     (    1224)
        G-vector shells                 0.00 Mb     (      61)
     Largest temporary arrays     est. size (Mb)     dimensions
        Auxiliary wavefunctions         0.04 Mb     (     165,   16)
        Each subspace H/S matrix        0.00 Mb     (      16,   16)
        Each <psi_i|beta_j> matrix      0.00 Mb     (       8,    4)

     The potential is recalculated from file :
     ./out/_ph0/AlAs.save/charge-density.dat

     Starting wfc are    8 atomic wfcs

     Band Structure Calculation
     Davidson diagonalization with overlap

     ethr =  1.25E-10,  avg # of iterations = 11.0

     total cpu time spent up to now is        1.6 secs

     End of band structure calculation

          k = 0.2500 0.2500 0.2500 (   311 PWs)   bands (ev):

    -6.3575   1.7035   4.6970   4.6970

          k = 1.0000 0.0000 1.0000 (   302 PWs)   bands (ev):

    -4.8216  -0.4470   2.9274   2.9274

          k = 0.2500 0.2500 0.7500 (   311 PWs)   bands (ev):

    -5.1819  -0.0415   2.3125   3.5086

          k = 1.0000 0.0000 1.5000 (   308 PWs)   bands (ev):

    -4.7852  -0.0517   1.7949   2.1910

          k =-0.2500 0.2500-0.2500 (   311 PWs)   bands (ev):

    -6.3575   1.7035   4.6970   4.6970

          k = 0.5000 0.0000 0.5000 (   315 PWs)   bands (ev):

    -5.5287   0.5005   2.1485   4.2663

          k =-0.2500-0.2500 0.2500 (   311 PWs)   bands (ev):

    -6.3575   1.7035   4.6970   4.6970

          k = 0.5000-0.5000 1.0000 (   315 PWs)   bands (ev):

    -5.5287   0.5005   2.1485   4.2663

          k =-0.2500-0.2500-0.2500 (   311 PWs)   bands (ev):

    -6.3575   1.7035   4.6970   4.6970

          k = 0.5000-0.5000 0.5000 (   302 PWs)   bands (ev):

    -5.4218  -0.6403   4.3483   4.3483

          k = 0.2500 0.2500-0.2500 (   311 PWs)   bands (ev):

    -6.3575   1.7035   4.6970   4.6970

          k = 1.0000 0.0000 0.5000 (   308 PWs)   bands (ev):

    -4.7852  -0.0517   1.7949   2.1910

          k = 0.2500-0.2500 0.2500 (   311 PWs)   bands (ev):

    -6.3575   1.7035   4.6970   4.6970

          k = 1.0000-0.5000 1.0000 (   311 PWs)   bands (ev):

    -6.1430   1.9396   3.7847   3.7847

          k =-0.2500 0.2500-0.7500 (   311 PWs)   bands (ev):

    -5.1819  -0.0415   2.3125   3.5086

          k = 0.5000 0.0000 0.0000 (   311 PWs)   bands (ev):

    -6.1430   1.9396   3.7847   3.7847

          k =-0.2500-0.2500 0.7500 (   311 PWs)   bands (ev):

    -5.1819  -0.0415   2.3125   3.5086

          k = 0.5000-0.5000 1.5000 (   302 PWs)   bands (ev):

    -5.4218  -0.6403   4.3483   4.3483

          k =-0.2500-0.7500 0.2500 (   311 PWs)   bands (ev):

    -5.1819  -0.0415   2.3125   3.5086

          k = 0.5000-1.0000 1.0000 (   311 PWs)   bands (ev):

    -6.1430   1.9396   3.7847   3.7847

          k =-0.7500-0.2500 0.2500 (   311 PWs)   bands (ev):

    -5.1819  -0.0415   2.3125   3.5086

          k = 0.0000-0.5000 1.0000 (   308 PWs)   bands (ev):

    -4.7852  -0.0517   1.7949   2.1910

          k =-0.2500 0.7500-0.2500 (   311 PWs)   bands (ev):

    -5.1819  -0.0415   2.3125   3.5086

          k = 0.5000 0.5000 0.5000 (   302 PWs)   bands (ev):

    -5.4218  -0.6403   4.3483   4.3483

          k = 0.2500 0.7500 0.2500 (   311 PWs)   bands (ev):

    -5.1819  -0.0415   2.3125   3.5086

          k = 1.0000 0.5000 1.0000 (   311 PWs)   bands (ev):

    -6.1430   1.9396   3.7847   3.7847

          k =-0.2500-0.2500-0.7500 (   311 PWs)   bands (ev):

    -5.1819  -0.0415   2.3125   3.5086

          k = 0.5000-0.5000 0.0000 (   315 PWs)   bands (ev):

    -5.5287   0.5005   2.1485   4.2663

          k = 0.2500 0.2500-0.7500 (   311 PWs)   bands (ev):

    -5.1819  -0.0415   2.3125   3.5086

          k = 1.0000 0.0000 0.0000 (   302 PWs)   bands (ev):

    -4.8216  -0.4470   2.9274   2.9274

          k = 0.2500-0.2500 0.7500 (   311 PWs)   bands (ev):

    -5.1819  -0.0415   2.3125   3.5086

          k = 1.0000-0.5000 1.5000 (   315 PWs)   bands (ev):

    -5.5287   0.5005   2.1485   4.2663

          k =-0.2500 0.2500 0.7500 (   311 PWs)   bands (ev):

    -5.1819  -0.0415   2.3125   3.5086

          k = 0.5000 0.0000 1.5000 (   315 PWs)   bands (ev):

    -5.5287   0.5005   2.1485   4.2663

          k =-0.2500 0.7500 0.2500 (   311 PWs)   bands (ev):

    -5.1819  -0.0415   2.3125   3.5086

          k = 0.5000 0.5000 1.0000 (   315 PWs)   bands (ev):

    -5.5287   0.5005   2.1485   4.2663

          k =-0.2500-0.7500-0.2500 (   311 PWs)   bands (ev):

    -5.1819  -0.0415   2.3125   3.5086

          k = 0.5000-1.0000 0.5000 (   315 PWs)   bands (ev):

    -5.5287   0.5005   2.1485   4.2663

          k = 0.2500-0.7500 0.2500 (   311 PWs)   bands (ev):

    -5.1819  -0.0415   2.3125   3.5086

          k = 1.0000-1.0000 1.0000 (   331 PWs)   bands (ev):

    -6.9797   5.1761   5.1761   5.1761

     highest occupied level (ev):     5.1761

     Writing output data file AlAs.save

                                                                                

     bravais-lattice index     =            2
     lattice parameter (alat)  =      10.5000  a.u.
     unit-cell volume          =     289.4062 (a.u.)^3
     number of atoms/cell      =            2
     number of atomic types    =            2
     kinetic-energy cut-off    =      16.0000  Ry
     charge density cut-off    =      64.0000  Ry
     convergence threshold     =      1.0E-14
     beta                      =       0.7000
     number of iterations used =            4
     Exchange-correlation      =  SLA  PZ   NOGX NOGC ( 1  1  0  0 0 0)


     celldm(1)=   10.50000  celldm(2)=    0.00000  celldm(3)=    0.00000
     celldm(4)=    0.00000  celldm(5)=    0.00000  celldm(6)=    0.00000

     crystal axes: (cart. coord. in units of alat)
               a(1) = ( -0.5000  0.0000  0.5000 )  
               a(2) = (  0.0000  0.5000  0.5000 )  
               a(3) = ( -0.5000  0.5000  0.0000 )  

     reciprocal axes: (cart. coord. in units 2 pi/alat)
               b(1) = ( -1.0000 -1.0000  1.0000 )  
               b(2) = (  1.0000  1.0000  1.0000 )  
               b(3) = ( -1.0000  1.0000 -1.0000 )  


     Atoms inside the unit cell: 

     Cartesian axes

     site n.  atom      mass           positions (alat units)
        1     Al  26.9800   tau(    1) = (    0.00000    0.00000    0.00000  )
        2     As  74.9200   tau(    2) = (    0.25000    0.25000    0.25000  )

     Computing dynamical matrix for 
                    q = (   0.7500000  -0.2500000   0.7500000 )
 
      2 Sym.Ops. (no q -> -q+G )


     G cutoff =  178.7306  (   1224 G-vectors)     FFT grid: ( 20, 20, 20)
     number of k points=    40

     PseudoPot. # 1 for Al read from file:
     ./Al.pz-vbc.UPF
     MD5 check sum: 13b59ac2968bcb74bf87a15840bc9960
     Pseudo is Norm-conserving, Zval =  3.0
     Generated by new atomic code, or converted to UPF format
     Using radial grid of  171 points,  2 beta functions with: 
                l(1) =   0
                l(2) =   1

     PseudoPot. # 2 for As read from file:
     ./As.pz-bhs.UPF
     MD5 check sum: d9127a8b584737f42ec2fe47e3acdea8
     Pseudo is Norm-conserving, Zval =  5.0
     Generated by new atomic code, or converted to UPF format
     Using radial grid of  525 points,  2 beta functions with: 
                l(1) =   0
                l(2) =   1

     Mode symmetry, C_s (m)     point group:


     Atomic displacements:
     There are   6 irreducible representations

     Representation     1      1 modes -A'  To be done

     Representation     2      1 modes -A'  To be done

     Representation     3      1 modes -A'  To be done

     Representation     4      1 modes -A'  To be done

     Representation     5      1 modes -A''  To be done

     Representation     6      1 modes -A''  To be done



     Alpha used in Ewald sum =   0.7000
     PHONON       :    13.01s CPU        18.24s WALL



     Representation #  1 mode #   1

     Self-consistent Calculation

      iter #   1 total cpu time :    18.4 secs   av.it.:   6.3
      thresh= 1.000E-02 alpha_mix =  0.700 |ddv_scf|^2 =  1.089E-04

      iter #   2 total cpu time :    18.6 secs   av.it.:   8.7
      thresh= 1.044E-03 alpha_mix =  0.700 |ddv_scf|^2 =  2.311E-04

      iter #   3 total cpu time :    18.8 secs   av.it.:   7.8
      thresh= 1.520E-03 alpha_mix =  0.700 |ddv_scf|^2 =  1.034E-06

      iter #   4 total cpu time :    19.0 secs   av.it.:   8.4
      thresh= 1.017E-04 alpha_mix =  0.700 |ddv_scf|^2 =  7.445E-09

      iter #   5 total cpu time :    19.3 secs   av.it.:   8.6
      thresh= 8.628E-06 alpha_mix =  0.700 |ddv_scf|^2 =  6.057E-10

      iter #   6 total cpu time :    19.5 secs   av.it.:   8.5
      thresh= 2.461E-06 alpha_mix =  0.700 |ddv_scf|^2 =  9.942E-12

      iter #   7 total cpu time :    19.7 secs   av.it.:   8.4
      thresh= 3.153E-07 alpha_mix =  0.700 |ddv_scf|^2 =  3.224E-13

      iter #   8 total cpu time :    19.9 secs   av.it.:   8.7
      thresh= 5.678E-08 alpha_mix =  0.700 |ddv_scf|^2 =  2.387E-14

      iter #   9 total cpu time :    20.1 secs   av.it.:   8.4
      thresh= 1.545E-08 alpha_mix =  0.700 |ddv_scf|^2 =  1.802E-14

      iter #  10 total cpu time :    20.3 secs   av.it.:   8.2
      thresh= 1.342E-08 alpha_mix =  0.700 |ddv_scf|^2 =  1.852E-15

     End of self-consistent calculation

     Convergence has been achieved 


     Representation #  2 mode #   2

     Self-consistent Calculation

      iter #   1 total cpu time :    20.5 secs   av.it.:   5.6
      thresh= 1.000E-02 alpha_mix =  0.700 |ddv_scf|^2 =  3.251E-05

      iter #   2 total cpu time :    20.8 secs   av.it.:   8.8
      thresh= 5.702E-04 alpha_mix =  0.700 |ddv_scf|^2 =  6.425E-05

      iter #   3 total cpu time :    21.0 secs   av.it.:   7.8
      thresh= 8.016E-04 alpha_mix =  0.700 |ddv_scf|^2 =  2.643E-07

      iter #   4 total cpu time :    21.2 secs   av.it.:   8.2
      thresh= 5.141E-05 alpha_mix =  0.700 |ddv_scf|^2 =  3.869E-09

      iter #   5 total cpu time :    21.4 secs   av.it.:   8.4
      thresh= 6.220E-06 alpha_mix =  0.700 |ddv_scf|^2 =  2.748E-10

      iter #   6 total cpu time :    21.6 secs   av.it.:   8.7
      thresh= 1.658E-06 alpha_mix =  0.700 |ddv_scf|^2 =  1.655E-11

      iter #   7 total cpu time :    21.8 secs   av.it.:   8.7
      thresh= 4.068E-07 alpha_mix =  0.700 |ddv_scf|^2 =  6.917E-13

      iter #   8 total cpu time :    22.0 secs   av.it.:   8.4
      thresh= 8.317E-08 alpha_mix =  0.700 |ddv_scf|^2 =  4.881E-14

      iter #   9 total cpu time :    22.3 secs   av.it.:   8.3
      thresh= 2.209E-08 alpha_mix =  0.700 |ddv_scf|^2 =  3.964E-14

      iter #  10 total cpu time :    22.5 secs   av.it.:   7.9
      thresh= 1.991E-08 alpha_mix =  0.700 |ddv_scf|^2 =  1.366E-15

     End of self-consistent calculation

     Convergence has been achieved 


     Representation #  3 mode #   3

     Self-consistent Calculation

      iter #   1 total cpu time :    22.7 secs   av.it.:   6.3
      thresh= 1.000E-02 alpha_mix =  0.700 |ddv_scf|^2 =  1.537E-04

      iter #   2 total cpu time :    22.9 secs   av.it.:   8.7
      thresh= 1.240E-03 alpha_mix =  0.700 |ddv_scf|^2 =  3.326E-04

      iter #   3 total cpu time :    23.1 secs   av.it.:   7.8
      thresh= 1.824E-03 alpha_mix =  0.700 |ddv_scf|^2 =  1.124E-06

      iter #   4 total cpu time :    23.3 secs   av.it.:   8.4
      thresh= 1.060E-04 alpha_mix =  0.700 |ddv_scf|^2 =  6.407E-09

      iter #   5 total cpu time :    23.5 secs   av.it.:   8.7
      thresh= 8.004E-06 alpha_mix =  0.700 |ddv_scf|^2 =  5.594E-10

      iter #   6 total cpu time :    23.8 secs   av.it.:   8.5
      thresh= 2.365E-06 alpha_mix =  0.700 |ddv_scf|^2 =  1.261E-11

      iter #   7 total cpu time :    24.0 secs   av.it.:   8.4
      thresh= 3.551E-07 alpha_mix =  0.700 |ddv_scf|^2 =  2.867E-13

      iter #   8 total cpu time :    24.2 secs   av.it.:   8.6
      thresh= 5.355E-08 alpha_mix =  0.700 |ddv_scf|^2 =  1.068E-15

     End of self-consistent calculation

     Convergence has been achieved 


     Representation #  4 mode #   4

     Self-consistent Calculation

      iter #   1 total cpu time :    24.4 secs   av.it.:   5.3
      thresh= 1.000E-02 alpha_mix =  0.700 |ddv_scf|^2 =  9.542E-06

      iter #   2 total cpu time :    24.6 secs   av.it.:   8.8
      thresh= 3.089E-04 alpha_mix =  0.700 |ddv_scf|^2 =  1.111E-05

      iter #   3 total cpu time :    24.9 secs   av.it.:   8.2
      thresh= 3.333E-04 alpha_mix =  0.700 |ddv_scf|^2 =  3.917E-07

      iter #   4 total cpu time :    25.1 secs   av.it.:   8.2
      thresh= 6.259E-05 alpha_mix =  0.700 |ddv_scf|^2 =  2.975E-09

      iter #   5 total cpu time :    25.3 secs   av.it.:   8.5
      thresh= 5.455E-06 alpha_mix =  0.700 |ddv_scf|^2 =  2.111E-10

      iter #   6 total cpu time :    25.5 secs   av.it.:   8.6
      thresh= 1.453E-06 alpha_mix =  0.700 |ddv_scf|^2 =  1.071E-11

      iter #   7 total cpu time :    25.7 secs   av.it.:   8.6
      thresh= 3.272E-07 alpha_mix =  0.700 |ddv_scf|^2 =  2.411E-13

      iter #   8 total cpu time :    25.9 secs   av.it.:   8.8
      thresh= 4.911E-08 alpha_mix =  0.700 |ddv_scf|^2 =  3.444E-13

      iter #   9 total cpu time :    26.1 secs   av.it.:   7.8
      thresh= 5.869E-08 alpha_mix =  0.700 |ddv_scf|^2 =  8.899E-15

     End of self-consistent calculation

     Convergence has been achieved 


     Representation #  5 mode #   5

     Self-consistent Calculation

      iter #   1 total cpu time :    26.3 secs   av.it.:   4.8
      thresh= 1.000E-02 alpha_mix =  0.700 |ddv_scf|^2 =  1.374E-06

      iter #   2 total cpu time :    26.5 secs   av.it.:   8.3
      thresh= 1.172E-04 alpha_mix =  0.700 |ddv_scf|^2 =  1.986E-07

      iter #   3 total cpu time :    26.7 secs   av.it.:   8.2
      thresh= 4.456E-05 alpha_mix =  0.700 |ddv_scf|^2 =  6.734E-10

      iter #   4 total cpu time :    26.9 secs   av.it.:   7.8
      thresh= 2.595E-06 alpha_mix =  0.700 |ddv_scf|^2 =  1.800E-11

      iter #   5 total cpu time :    27.1 secs   av.it.:   7.6
      thresh= 4.243E-07 alpha_mix =  0.700 |ddv_scf|^2 =  6.405E-15

     End of self-consistent calculation

     Convergence has been achieved 


     Representation #  6 mode #   6

     Self-consistent Calculation

      iter #   1 total cpu time :    27.3 secs   av.it.:   5.8
      thresh= 1.000E-02 alpha_mix =  0.700 |ddv_scf|^2 =  1.022E-05

      iter #   2 total cpu time :    27.6 secs   av.it.:   8.3
[...]
                l(2) =   1

     PseudoPot. # 2 for As read from file:
     ./As.pz-bhs.UPF
     MD5 check sum: d9127a8b584737f42ec2fe47e3acdea8
     Pseudo is Norm-conserving, Zval =  5.0
     Generated by new atomic code, or converted to UPF format
     Using radial grid of  525 points,  2 beta functions with: 
                l(1) =   0
                l(2) =   1

     atomic species   valence    mass     pseudopotential
        Al             3.00    26.98000     Al( 1.00)
        As             5.00    74.92000     As( 1.00)

     24 Sym. Ops. (no inversion) found



   Cartesian axes

     site n.     atom                  positions (alat units)
         1           Al  tau(   1) = (   0.0000000   0.0000000   0.0000000  )
         2           As  tau(   2) = (   0.2500000   0.2500000   0.2500000  )

     number of k points=    16
                       cart. coord. in units 2pi/alat
        k(    1) = (   0.2500000   0.2500000   0.2500000), wk =   0.2500000
        k(    2) = (  -0.2500000  -0.7500000   0.2500000), wk =   0.0000000
        k(    3) = (   0.2500000   0.2500000   0.7500000), wk =   0.2500000
        k(    4) = (  -0.2500000  -0.7500000   0.7500000), wk =   0.0000000
        k(    5) = (  -0.2500000  -0.2500000  -0.2500000), wk =   0.2500000
        k(    6) = (  -0.7500000  -1.2500000  -0.2500000), wk =   0.0000000
        k(    7) = (  -0.7500000  -0.2500000   0.2500000), wk =   0.2500000
        k(    8) = (  -1.2500000  -1.2500000   0.2500000), wk =   0.0000000
        k(    9) = (  -0.2500000  -0.2500000   0.7500000), wk =   0.2500000
        k(   10) = (  -0.7500000  -1.2500000   0.7500000), wk =   0.0000000
        k(   11) = (  -0.2500000  -0.2500000  -0.7500000), wk =   0.2500000
        k(   12) = (  -0.7500000  -1.2500000  -0.7500000), wk =   0.0000000
        k(   13) = (   0.2500000   0.2500000  -0.7500000), wk =   0.2500000
        k(   14) = (  -0.2500000  -0.7500000  -0.7500000), wk =   0.0000000
        k(   15) = (   0.7500000  -0.2500000   0.2500000), wk =   0.2500000
        k(   16) = (   0.2500000  -1.2500000   0.2500000), wk =   0.0000000

     Dense  grid:     2445 G-vectors     FFT dimensions: (  20,  20,  20)

     Largest allocated arrays     est. size (Mb)     dimensions
        Kohn-Sham Wavefunctions         0.01 Mb     (     182,    4)
        NL pseudopotentials             0.02 Mb     (     182,    8)
        Each V/rho on FFT grid          0.06 Mb     (    4000)
        Each G-vector array             0.01 Mb     (    1224)
        G-vector shells                 0.00 Mb     (      61)
     Largest temporary arrays     est. size (Mb)     dimensions
        Auxiliary wavefunctions         0.04 Mb     (     182,   16)
        Each subspace H/S matrix        0.00 Mb     (      16,   16)
        Each <psi_i|beta_j> matrix      0.00 Mb     (       8,    4)

     The potential is recalculated from file :
     ./out/_ph0/AlAs.save/charge-density.dat

     Starting wfc are    8 atomic wfcs

     Band Structure Calculation
     Davidson diagonalization with overlap

     ethr =  1.25E-10,  avg # of iterations = 11.8

     total cpu time spent up to now is        2.9 secs

     End of band structure calculation

          k = 0.2500 0.2500 0.2500 (   311 PWs)   bands (ev):

    -6.3575   1.7035   4.6970   4.6970

          k =-0.2500-0.7500 0.2500 (   311 PWs)   bands (ev):

    -5.1819  -0.0415   2.3125   3.5086

          k = 0.2500 0.2500 0.7500 (   311 PWs)   bands (ev):

    -5.1819  -0.0415   2.3125   3.5086

          k =-0.2500-0.7500 0.7500 (   311 PWs)   bands (ev):

    -5.1819  -0.0415   2.3125   3.5086

          k =-0.2500-0.2500-0.2500 (   311 PWs)   bands (ev):

    -6.3575   1.7035   4.6970   4.6970

          k =-0.7500-1.2500-0.2500 (   311 PWs)   bands (ev):

    -5.1819  -0.0415   2.3125   3.5086

          k =-0.7500-0.2500 0.2500 (   311 PWs)   bands (ev):

    -5.1819  -0.0415   2.3125   3.5086

          k =-1.2500-1.2500 0.2500 (   311 PWs)   bands (ev):

    -5.1819  -0.0415   2.3125   3.5086

          k =-0.2500-0.2500 0.7500 (   311 PWs)   bands (ev):

    -5.1819  -0.0415   2.3125   3.5086

          k =-0.7500-1.2500 0.7500 (   311 PWs)   bands (ev):

    -6.3575   1.7035   4.6970   4.6970

          k =-0.2500-0.2500-0.7500 (   311 PWs)   bands (ev):

    -5.1819  -0.0415   2.3125   3.5086

          k =-0.7500-1.2500-0.7500 (   311 PWs)   bands (ev):

    -6.3575   1.7035   4.6970   4.6970

          k = 0.2500 0.2500-0.7500 (   311 PWs)   bands (ev):

    -5.1819  -0.0415   2.3125   3.5086

          k =-0.2500-0.7500-0.7500 (   311 PWs)   bands (ev):

    -5.1819  -0.0415   2.3125   3.5086

          k = 0.7500-0.2500 0.2500 (   311 PWs)   bands (ev):

    -5.1819  -0.0415   2.3125   3.5086

          k = 0.2500-1.2500 0.2500 (   311 PWs)   bands (ev):

    -5.1819  -0.0415   2.3125   3.5086

     highest occupied level (ev):     4.6970

     Writing output data file AlAs.save

                                                                                

     bravais-lattice index     =            2
     lattice parameter (alat)  =      10.5000  a.u.
     unit-cell volume          =     289.4062 (a.u.)^3
     number of atoms/cell      =            2
     number of atomic types    =            2
     kinetic-energy cut-off    =      16.0000  Ry
     charge density cut-off    =      64.0000  Ry
     convergence threshold     =      1.0E-14
     beta                      =       0.7000
     number of iterations used =            4
     Exchange-correlation      =  SLA  PZ   NOGX NOGC ( 1  1  0  0 0 0)


     celldm(1)=   10.50000  celldm(2)=    0.00000  celldm(3)=    0.00000
     celldm(4)=    0.00000  celldm(5)=    0.00000  celldm(6)=    0.00000

     crystal axes: (cart. coord. in units of alat)
               a(1) = ( -0.5000  0.0000  0.5000 )  
               a(2) = (  0.0000  0.5000  0.5000 )  
               a(3) = ( -0.5000  0.5000  0.0000 )  

     reciprocal axes: (cart. coord. in units 2 pi/alat)
               b(1) = ( -1.0000 -1.0000  1.0000 )  
               b(2) = (  1.0000  1.0000  1.0000 )  
               b(3) = ( -1.0000  1.0000 -1.0000 )  


     Atoms inside the unit cell: 

     Cartesian axes

     site n.  atom      mass           positions (alat units)
        1     Al  26.9800   tau(    1) = (    0.00000    0.00000    0.00000  )
        2     As  74.9200   tau(    2) = (    0.25000    0.25000    0.25000  )

     Computing dynamical matrix for 
                    q = (  -0.5000000  -1.0000000   0.0000000 )
 
      4 Sym.Ops. (no q -> -q+G )


     G cutoff =  178.7306  (   1224 G-vectors)     FFT grid: ( 20, 20, 20)
     number of k points=    16

     PseudoPot. # 1 for Al read from file:
     ./Al.pz-vbc.UPF
     MD5 check sum: 13b59ac2968bcb74bf87a15840bc9960
     Pseudo is Norm-conserving, Zval =  3.0
     Generated by new atomic code, or converted to UPF format
     Using radial grid of  171 points,  2 beta functions with: 
                l(1) =   0
                l(2) =   1

     PseudoPot. # 2 for As read from file:
     ./As.pz-bhs.UPF
     MD5 check sum: d9127a8b584737f42ec2fe47e3acdea8
     Pseudo is Norm-conserving, Zval =  5.0
     Generated by new atomic code, or converted to UPF format
     Using radial grid of  525 points,  2 beta functions with: 
                l(1) =   0
                l(2) =   1

     Mode symmetry, S_4 (-4)    point group:


     Atomic displacements:
     There are   6 irreducible representations

     Representation     1      1 modes -A    W_1  To be done

     Representation     2      1 modes -B    W_3  To be done

     Representation     3      1 modes -B    W_3  To be done

     Representation     4      1 modes -E    W_4  To be done

     Representation     5      1 modes -E*   W_2  To be done

     Representation     6      1 modes -E*   W_2  To be done



     Alpha used in Ewald sum =   0.7000
     PHONON       :    32.48s CPU        42.16s WALL



     Representation #  1 mode #   1

     Self-consistent Calculation

      iter #   1 total cpu time :    42.2 secs   av.it.:   6.2
      thresh= 1.000E-02 alpha_mix =  0.700 |ddv_scf|^2 =  6.987E-05

      iter #   2 total cpu time :    42.3 secs   av.it.:   9.2
      thresh= 8.359E-04 alpha_mix =  0.700 |ddv_scf|^2 =  7.443E-05

      iter #   3 total cpu time :    42.4 secs   av.it.:   8.2
      thresh= 8.627E-04 alpha_mix =  0.700 |ddv_scf|^2 =  7.831E-10

      iter #   4 total cpu time :    42.5 secs   av.it.:   9.0
      thresh= 2.798E-06 alpha_mix =  0.700 |ddv_scf|^2 =  7.969E-11

      iter #   5 total cpu time :    42.6 secs   av.it.:   8.2
      thresh= 8.927E-07 alpha_mix =  0.700 |ddv_scf|^2 =  1.760E-13

      iter #   6 total cpu time :    42.7 secs   av.it.:   8.2
      thresh= 4.196E-08 alpha_mix =  0.700 |ddv_scf|^2 =  8.469E-15

     End of self-consistent calculation

     Convergence has been achieved 


     Representation #  2 mode #   2

     Self-consistent Calculation

      iter #   1 total cpu time :    42.9 secs   av.it.:   6.2
      thresh= 1.000E-02 alpha_mix =  0.700 |ddv_scf|^2 =  5.006E-05

      iter #   2 total cpu time :    43.0 secs   av.it.:   9.0
      thresh= 7.075E-04 alpha_mix =  0.700 |ddv_scf|^2 =  3.097E-05

      iter #   3 total cpu time :    43.1 secs   av.it.:   8.2
      thresh= 5.565E-04 alpha_mix =  0.700 |ddv_scf|^2 =  5.228E-10

      iter #   4 total cpu time :    43.2 secs   av.it.:   8.5
      thresh= 2.286E-06 alpha_mix =  0.700 |ddv_scf|^2 =  4.880E-11

      iter #   5 total cpu time :    43.3 secs   av.it.:   8.2
      thresh= 6.986E-07 alpha_mix =  0.700 |ddv_scf|^2 =  9.665E-14

      iter #   6 total cpu time :    43.4 secs   av.it.:   9.0
      thresh= 3.109E-08 alpha_mix =  0.700 |ddv_scf|^2 =  3.692E-16

     End of self-consistent calculation

     Convergence has been achieved 


     Representation #  3 mode #   3

     Self-consistent Calculation

      iter #   1 total cpu time :    43.5 secs   av.it.:   5.5
      thresh= 1.000E-02 alpha_mix =  0.700 |ddv_scf|^2 =  5.893E-06

      iter #   2 total cpu time :    43.6 secs   av.it.:   9.0
      thresh= 2.427E-04 alpha_mix =  0.700 |ddv_scf|^2 =  3.651E-06

      iter #   3 total cpu time :    43.7 secs   av.it.:   8.2
      thresh= 1.911E-04 alpha_mix =  0.700 |ddv_scf|^2 =  8.520E-10

      iter #   4 total cpu time :    43.8 secs   av.it.:   7.9
      thresh= 2.919E-06 alpha_mix =  0.700 |ddv_scf|^2 =  5.645E-11

      iter #   5 total cpu time :    43.9 secs   av.it.:   8.0
      thresh= 7.513E-07 alpha_mix =  0.700 |ddv_scf|^2 =  1.355E-14

      iter #   6 total cpu time :    44.0 secs   av.it.:   8.6
      thresh= 1.164E-08 alpha_mix =  0.700 |ddv_scf|^2 =  2.526E-16

     End of self-consistent calculation

     Convergence has been achieved 


     Representation #  4 mode #   4

     Self-consistent Calculation

      iter #   1 total cpu time :    44.1 secs   av.it.:   5.5
      thresh= 1.000E-02 alpha_mix =  0.700 |ddv_scf|^2 =  8.945E-06

      iter #   2 total cpu time :    44.2 secs   av.it.:   8.8
      thresh= 2.991E-04 alpha_mix =  0.700 |ddv_scf|^2 =  6.131E-06

      iter #   3 total cpu time :    44.3 secs   av.it.:   8.2
      thresh= 2.476E-04 alpha_mix =  0.700 |ddv_scf|^2 =  6.895E-09

      iter #   4 total cpu time :    44.4 secs   av.it.:   8.2
      thresh= 8.304E-06 alpha_mix =  0.700 |ddv_scf|^2 =  7.985E-11

      iter #   5 total cpu time :    44.5 secs   av.it.:   8.0
      thresh= 8.936E-07 alpha_mix =  0.700 |ddv_scf|^2 =  1.124E-13

      iter #   6 total cpu time :    44.6 secs   av.it.:   8.5
      thresh= 3.353E-08 alpha_mix =  0.700 |ddv_scf|^2 =  1.052E-15

     End of self-consistent calculation

     Convergence has been achieved 


     Representation #  5 mode #   5

     Self-consistent Calculation

      iter #   1 total cpu time :    44.7 secs   av.it.:   5.8
      thresh= 1.000E-02 alpha_mix =  0.700 |ddv_scf|^2 =  7.728E-06

      iter #   2 total cpu time :    44.8 secs   av.it.:   9.2
      thresh= 2.780E-04 alpha_mix =  0.700 |ddv_scf|^2 =  3.391E-06

      iter #   3 total cpu time :    44.9 secs   av.it.:   8.2
      thresh= 1.842E-04 alpha_mix =  0.700 |ddv_scf|^2 =  9.911E-10

      iter #   4 total cpu time :    45.0 secs   av.it.:   8.2
      thresh= 3.148E-06 alpha_mix =  0.700 |ddv_scf|^2 =  1.711E-11

      iter #   5 total cpu time :    45.1 secs   av.it.:   8.2
      thresh= 4.137E-07 alpha_mix =  0.700 |ddv_scf|^2 =  4.609E-14

      iter #   6 total cpu time :    45.2 secs   av.it.:   9.0
      thresh= 2.147E-08 alpha_mix =  0.700 |ddv_scf|^2 =  2.342E-16

     End of self-consistent calculation

     Convergence has been achieved 


     Representation #  6 mode #   6

     Self-consistent Calculation

      iter #   1 total cpu time :    45.3 secs   av.it.:   6.2
      thresh= 1.000E-02 alpha_mix =  0.700 |ddv_scf|^2 =  2.824E-05

      iter #   2 total cpu time :    45.4 secs   av.it.:   9.2
      thresh= 5.314E-04 alpha_mix =  0.700 |ddv_scf|^2 =  1.351E-05

      iter #   3 total cpu time :    45.5 secs   av.it.:   8.2
      thresh= 3.676E-04 alpha_mix =  0.700 |ddv_scf|^2 =  1.555E-09

      iter #   4 total cpu time :    45.6 secs   av.it.:   8.8
      thresh= 3.943E-06 alpha_mix =  0.700 |ddv_scf|^2 =  5.652E-11

      iter #   5 total cpu time :    45.7 secs   av.it.:   8.8
      thresh= 7.518E-07 alpha_mix =  0.700 |ddv_scf|^2 =  1.136E-13

      iter #   6 total cpu time :    45.8 secs   av.it.:   9.0
      thresh= 3.370E-08 alpha_mix =  0.700 |ddv_scf|^2 =  1.138E-15

     End of self-consistent calculation

     Convergence has been achieved 
 
     Number of q in the star =    6
     List of q in the star:
          1  -0.500000000  -1.000000000   0.000000000
          2   0.000000000   1.000000000  -0.500000000
          3   0.000000000   1.000000000   0.500000000
          4   0.500000000   1.000000000   0.000000000
          5   0.000000000  -0.500000000  -1.000000000
          6   0.000000000   0.500000000  -1.000000000

     Diagonalizing the dynamical matrix

     q = (   -0.500000000  -1.000000000   0.000000000 ) 

 **************************************************************************
     freq (    1) =       3.744992 [THz] =     124.919473 [cm-1]
     freq (    2) =       4.013478 [THz] =     133.875223 [cm-1]
     freq (    3) =       5.962773 [THz] =     198.896714 [cm-1]
     freq (    4) =      10.536442 [THz] =     351.457880 [cm-1]
     freq (    5) =      10.643240 [THz] =     355.020263 [cm-1]
     freq (    6) =      10.759522 [THz] =     358.899035 [cm-1]
 **************************************************************************

     Mode symmetry, S_4 (-4)    point group:

     freq (  1 -  1) =        124.9  [cm-1]   --> B    W_3           
     freq (  2 -  2) =        133.9  [cm-1]   --> E*   W_2           
     freq (  3 -  3) =        198.9  [cm-1]   --> A    W_1           
     freq (  4 -  4) =        351.5  [cm-1]   --> B    W_3           
     freq (  5 -  5) =        355.0  [cm-1]   --> E    W_4           
     freq (  6 -  6) =        358.9  [cm-1]   --> E*   W_2           
 
     init_run     :      0.17s CPU      0.22s WALL (       7 calls)
     electrons    :      1.93s CPU      1.99s WALL (       7 calls)

     Called by init_run:
     wfcinit      :      0.00s CPU      0.01s WALL (       7 calls)
     potinit      :      0.02s CPU      0.04s WALL (       7 calls)

     Called by electrons:
     c_bands      :      1.93s CPU      1.99s WALL (       7 calls)
     v_of_rho     :      0.00s CPU      0.00s WALL (       8 calls)

     Called by c_bands:
     init_us_2    :      0.19s CPU      0.21s WALL (    4008 calls)
     cegterg      :      1.63s CPU      1.67s WALL (     156 calls)

     Called by sum_band:

     Called by *egterg:
     h_psi        :      1.48s CPU      1.56s WALL (    2094 calls)
     g_psi        :      0.01s CPU      0.01s WALL (    1782 calls)
     cdiaghg      :      0.21s CPU      0.18s WALL (    1938 calls)

     Called by h_psi:
     add_vuspsi   :      0.56s CPU      0.57s WALL (   34968 calls)

     General routines
     calbec       :      1.07s CPU      1.13s WALL (   70568 calls)
     fft          :      0.13s CPU      0.13s WALL (    1034 calls)
     ffts         :      0.08s CPU      0.09s WALL (     720 calls)
     fftw         :     23.84s CPU     24.42s WALL (  307034 calls)
     davcio       :      0.06s CPU      0.37s WALL (   19408 calls)
 
     Parallel routines
     fft_scatter  :      6.99s CPU      7.49s WALL (  308788 calls)
 
     PHONON       :    35.18s CPU        45.89s WALL

     INITIALIZATION: 
     phq_setup    :      0.05s CPU      0.13s WALL (       8 calls)
     phq_init     :      0.14s CPU      0.27s WALL (       8 calls)
 
     phq_init     :      0.14s CPU      0.27s WALL (       8 calls)
     init_vloc    :      0.00s CPU      0.00s WALL (       8 calls)
     init_us_1    :      0.07s CPU      0.07s WALL (       8 calls)
 
     DYNAMICAL MATRIX:
     dynmat0      :      0.04s CPU      0.15s WALL (       8 calls)
     phqscf       :     31.27s CPU     40.41s WALL (       8 calls)
     dynmatrix    :      0.02s CPU      0.11s WALL (       8 calls)
 
     phqscf       :     31.27s CPU     40.41s WALL (       8 calls)
     solve_linter :     31.08s CPU     39.42s WALL (      38 calls)
     drhodv       :      0.08s CPU      0.12s WALL (      38 calls)
 
     dynmat0      :      0.04s CPU      0.15s WALL (       8 calls)
     dynmat_us    :      0.02s CPU      0.04s WALL (       8 calls)
     d2ionq       :      0.00s CPU      0.00s WALL (       8 calls)
 
     dynmat_us    :      0.02s CPU      0.04s WALL (       8 calls)
 
     phqscf       :     31.27s CPU     40.41s WALL (       8 calls)
     solve_linter :     31.08s CPU     39.42s WALL (      38 calls)
 
     solve_linter :     31.08s CPU     39.42s WALL (      38 calls)
     dvqpsi_us    :      0.44s CPU      0.47s WALL (     492 calls)
     ortho        :      0.12s CPU      0.14s WALL (    3518 calls)
     cgsolve      :     23.85s CPU     24.71s WALL (    3518 calls)
     incdrhoscf   :      2.83s CPU      2.90s WALL (    3512 calls)
     vpsifft      :      2.20s CPU      2.29s WALL (    2996 calls)
     dv_of_drho   :      0.14s CPU      0.13s WALL (     334 calls)
     mix_pot      :      0.34s CPU      3.49s WALL (     269 calls)
     psymdvscf    :      0.85s CPU      0.86s WALL (     263 calls)
 
     dvqpsi_us    :      0.44s CPU      0.47s WALL (     492 calls)
     dvqpsi_us_on :      0.03s CPU      0.03s WALL (     492 calls)
 
     cgsolve      :     23.85s CPU     24.71s WALL (    3518 calls)
     ch_psi       :     23.10s CPU     23.97s WALL (   32874 calls)
 
     ch_psi       :     23.10s CPU     23.97s WALL (   32874 calls)
     h_psiq       :     21.64s CPU     22.41s WALL (   32874 calls)
     last         :      1.32s CPU      1.37s WALL (   32874 calls)
 
     h_psiq       :     21.64s CPU     22.41s WALL (   32874 calls)
     firstfft     :     10.11s CPU     10.24s WALL (  117287 calls)
     secondfft    :      9.13s CPU      9.55s WALL (  117287 calls)
     add_vuspsi   :      0.56s CPU      0.57s WALL (   34968 calls)
 
     incdrhoscf   :      2.83s CPU      2.90s WALL (    3512 calls)
 
 
      General routines
     calbec       :      1.07s CPU      1.13s WALL (   70568 calls)
     fft          :      0.13s CPU      0.13s WALL (    1034 calls)
     ffts         :      0.08s CPU      0.09s WALL (     720 calls)
     fftw         :     23.84s CPU     24.42s WALL (  307034 calls)
     davcio       :      0.06s CPU      0.37s WALL (   19408 calls)
     write_rec    :      0.47s CPU      5.33s WALL (     307 calls)
 
 
     PHONON       :    35.18s CPU        45.89s WALL

 
   This run was terminated on:  15:23:35  21Sep2015            

=------------------------------------------------------------------------------=
   JOB DONE.
=------------------------------------------------------------------------------=
