<UPF version="2.0.1">
  <PP_INFO>

 This pseudopotential file has been produced using the code
 ONCVPSP  (Optimized Norm-Conservinng Vanderbilt PSeudopotential)
 scalar-relativistic version 3.0.0 10/10/2014 by D. R. Hamann
 The code is available through a link at URL www.mat-simresearch.com.
 Documentation with the package provides a full discription of the
 input data below.


 While it is not required under the terms of the GNU GPL, it is
 suggested that you cite D. R. Hamann, Phys. Rev. B 88, 085117 (2013)
 in any publication using these pseudopotentials.

    <PP_INPUTFILE>
# ATOM AND REFERENCE CONFIGURATION
# atsym  z   nc   nv     iexc    psfile
  Au 79.00   10    4 -116133      upf
#
#   n    l    f        energy (Ha)
    1    0    2.00
    2    0    2.00
    2    1    6.00
    3    0    2.00
    3    1    6.00
    3    2   10.00
    4    0    2.00
    4    1    6.00
    4    2   10.00
    4    3   14.00
    5    0    2.00
    5    1    6.00
    6    0    2.00
    5    2    9.00
#
# PSEUDOPOTENTIAL AND OPTIMIZATION
# lmax
    3
#
#   l,   rc,     ep,   ncon, nbas, qcut
    0    2.46   -4.09    5    8    6.08
    1    2.46   -2.30    5    8    6.28
    2    2.18   -0.33    5    8    6.84
    3    3.12    0.20    5    8    4.95
#
# LOCAL POTENTIAL
# lloc, lpopt,  rc(5),   dvloc0
    4    5      1.58       0.00
#
# VANDERBILT-KLEINMAN-BYLANDER PROJECTORs
# l, nproj, debl
    0    2    3.8455
    1    2    2.2600
    2    2    1.2954
    3    2    1.7877
#
# MODEL CORE CHARGE
# icmod, fcfact
    0    0.00
#
# LOG DERIVATIVE ANALYSIS
# epsh1, epsh2, depsh
   -5.00    3.00    0.02
#
# OUTPUT GRID
# rlmax, drl
    6.00    0.01
#
# TEST CONFIGURATIONS
# ncnf
    0
# nvcnf
#   n    l    f
    </PP_INPUTFILE>
  </PP_INFO>
  <!--                               -->
  <!-- END OF HUMAN READABLE SECTION -->
  <!--                               -->
    <PP_HEADER
       generated="Generated using ONCVPSP code by D. R. Hamann"
       author="anonymous"
       date="150603"
       comment=""
       element="Au"
       pseudo_type="NC"
       relativistic="scalar"
       is_ultrasoft="F"
       is_paw="F"
       is_coulomb="F"
       has_so="F"
       has_wfc="F"
       has_gipaw="F"
       core_correction="F"
       functional="PBESOL"
       z_valence="   19.00"
       total_psenergy="  -1.37109985739E+02"
       rho_cutoff="   5.99000000000E+00"
       l_max="3"
       l_local="-1"
       mesh_size="   600"
       number_of_wfc="0"
       number_of_proj="8"/>
 <PP_MESH>
   <PP_R type="real"  size=" 600" columns="8">
    0.0000    0.0100    0.0200    0.0300    0.0400    0.0500    0.0600    0.0700
    0.0800    0.0900    0.1000    0.1100    0.1200    0.1300    0.1400    0.1500
    0.1600    0.1700    0.1800    0.1900    0.2000    0.2100    0.2200    0.2300
    0.2400    0.2500    0.2600    0.2700    0.2800    0.2900    0.3000    0.3100
    0.3200    0.3300    0.3400    0.3500    0.3600    0.3700    0.3800    0.3900
    0.4000    0.4100    0.4200    0.4300    0.4400    0.4500    0.4600    0.4700
    0.4800    0.4900    0.5000    0.5100    0.5200    0.5300    0.5400    0.5500
    0.5600    0.5700    0.5800    0.5900    0.6000    0.6100    0.6200    0.6300
    0.6400    0.6500    0.6600    0.6700    0.6800    0.6900    0.7000    0.7100
    0.7200    0.7300    0.7400    0.7500    0.7600    0.7700    0.7800    0.7900
    0.8000    0.8100    0.8200    0.8300    0.8400    0.8500    0.8600    0.8700
    0.8800    0.8900    0.9000    0.9100    0.9200    0.9300    0.9400    0.9500
    0.9600    0.9700    0.9800    0.9900    1.0000    1.0100    1.0200    1.0300
    1.0400    1.0500    1.0600    1.0700    1.0800    1.0900    1.1000    1.1100
    1.1200    1.1300    1.1400    1.1500    1.1600    1.1700    1.1800    1.1900
    1.2000    1.2100    1.2200    1.2300    1.2400    1.2500    1.2600    1.2700
    1.2800    1.2900    1.3000    1.3100    1.3200    1.3300    1.3400    1.3500
    1.3600    1.3700    1.3800    1.3900    1.4000    1.4100    1.4200    1.4300
    1.4400    1.4500    1.4600    1.4700    1.4800    1.4900    1.5000    1.5100
    1.5200    1.5300    1.5400    1.5500    1.5600    1.5700    1.5800    1.5900
    1.6000    1.6100    1.6200    1.6300    1.6400    1.6500    1.6600    1.6700
    1.6800    1.6900    1.7000    1.7100    1.7200    1.7300    1.7400    1.7500
    1.7600    1.7700    1.7800    1.7900    1.8000    1.8100    1.8200    1.8300
    1.8400    1.8500    1.8600    1.8700    1.8800    1.8900    1.9000    1.9100
    1.9200    1.9300    1.9400    1.9500    1.9600    1.9700    1.9800    1.9900
    2.0000    2.0100    2.0200    2.0300    2.0400    2.0500    2.0600    2.0700
    2.0800    2.0900    2.1000    2.1100    2.1200    2.1300    2.1400    2.1500
    2.1600    2.1700    2.1800    2.1900    2.2000    2.2100    2.2200    2.2300
    2.2400    2.2500    2.2600    2.2700    2.2800    2.2900    2.3000    2.3100
    2.3200    2.3300    2.3400    2.3500    2.3600    2.3700    2.3800    2.3900
    2.4000    2.4100    2.4200    2.4300    2.4400    2.4500    2.4600    2.4700
    2.4800    2.4900    2.5000    2.5100    2.5200    2.5300    2.5400    2.5500
    2.5600    2.5700    2.5800    2.5900    2.6000    2.6100    2.6200    2.6300
    2.6400    2.6500    2.6600    2.6700    2.6800    2.6900    2.7000    2.7100
    2.7200    2.7300    2.7400    2.7500    2.7600    2.7700    2.7800    2.7900
    2.8000    2.8100    2.8200    2.8300    2.8400    2.8500    2.8600    2.8700
    2.8800    2.8900    2.9000    2.9100    2.9200    2.9300    2.9400    2.9500
    2.9600    2.9700    2.9800    2.9900    3.0000    3.0100    3.0200    3.0300
    3.0400    3.0500    3.0600    3.0700    3.0800    3.0900    3.1000    3.1100
    3.1200    3.1300    3.1400    3.1500    3.1600    3.1700    3.1800    3.1900
    3.2000    3.2100    3.2200    3.2300    3.2400    3.2500    3.2600    3.2700
    3.2800    3.2900    3.3000    3.3100    3.3200    3.3300    3.3400    3.3500
    3.3600    3.3700    3.3800    3.3900    3.4000    3.4100    3.4200    3.4300
    3.4400    3.4500    3.4600    3.4700    3.4800    3.4900    3.5000    3.5100
    3.5200    3.5300    3.5400    3.5500    3.5600    3.5700    3.5800    3.5900
    3.6000    3.6100    3.6200    3.6300    3.6400    3.6500    3.6600    3.6700
    3.6800    3.6900    3.7000    3.7100    3.7200    3.7300    3.7400    3.7500
    3.7600    3.7700    3.7800    3.7900    3.8000    3.8100    3.8200    3.8300
    3.8400    3.8500    3.8600    3.8700    3.8800    3.8900    3.9000    3.9100
    3.9200    3.9300    3.9400    3.9500    3.9600    3.9700    3.9800    3.9900
    4.0000    4.0100    4.0200    4.0300    4.0400    4.0500    4.0600    4.0700
    4.0800    4.0900    4.1000    4.1100    4.1200    4.1300    4.1400    4.1500
    4.1600    4.1700    4.1800    4.1900    4.2000    4.2100    4.2200    4.2300
    4.2400    4.2500    4.2600    4.2700    4.2800    4.2900    4.3000    4.3100
    4.3200    4.3300    4.3400    4.3500    4.3600    4.3700    4.3800    4.3900
    4.4000    4.4100    4.4200    4.4300    4.4400    4.4500    4.4600    4.4700
    4.4800    4.4900    4.5000    4.5100    4.5200    4.5300    4.5400    4.5500
    4.5600    4.5700    4.5800    4.5900    4.6000    4.6100    4.6200    4.6300
    4.6400    4.6500    4.6600    4.6700    4.6800    4.6900    4.7000    4.7100
    4.7200    4.7300    4.7400    4.7500    4.7600    4.7700    4.7800    4.7900
    4.8000    4.8100    4.8200    4.8300    4.8400    4.8500    4.8600    4.8700
    4.8800    4.8900    4.9000    4.9100    4.9200    4.9300    4.9400    4.9500
    4.9600    4.9700    4.9800    4.9900    5.0000    5.0100    5.0200    5.0300
    5.0400    5.0500    5.0600    5.0700    5.0800    5.0900    5.1000    5.1100
    5.1200    5.1300    5.1400    5.1500    5.1600    5.1700    5.1800    5.1900
    5.2000    5.2100    5.2200    5.2300    5.2400    5.2500    5.2600    5.2700
    5.2800    5.2900    5.3000    5.3100    5.3200    5.3300    5.3400    5.3500
    5.3600    5.3700    5.3800    5.3900    5.4000    5.4100    5.4200    5.4300
    5.4400    5.4500    5.4600    5.4700    5.4800    5.4900    5.5000    5.5100
    5.5200    5.5300    5.5400    5.5500    5.5600    5.5700    5.5800    5.5900
    5.6000    5.6100    5.6200    5.6300    5.6400    5.6500    5.6600    5.6700
    5.6800    5.6900    5.7000    5.7100    5.7200    5.7300    5.7400    5.7500
    5.7600    5.7700    5.7800    5.7900    5.8000    5.8100    5.8200    5.8300
    5.8400    5.8500    5.8600    5.8700    5.8800    5.8900    5.9000    5.9100
    5.9200    5.9300    5.9400    5.9500    5.9600    5.9700    5.9800    5.9900
   </PP_R>
   <PP_RAB type="real"  size=" 600" columns="8">
    0.0100    0.0100    0.0100    0.0100    0.0100    0.0100    0.0100    0.0100
    0.0100    0.0100    0.0100    0.0100    0.0100    0.0100    0.0100    0.0100
    0.0100    0.0100    0.0100    0.0100    0.0100    0.0100    0.0100    0.0100
    0.0100    0.0100    0.0100    0.0100    0.0100    0.0100    0.0100    0.0100
    0.0100    0.0100    0.0100    0.0100    0.0100    0.0100    0.0100    0.0100
    0.0100    0.0100    0.0100    0.0100    0.0100    0.0100    0.0100    0.0100
    0.0100    0.0100    0.0100    0.0100    0.0100    0.0100    0.0100    0.0100
    0.0100    0.0100    0.0100    0.0100    0.0100    0.0100    0.0100    0.0100
    0.0100    0.0100    0.0100    0.0100    0.0100    0.0100    0.0100    0.0100
    0.0100    0.0100    0.0100    0.0100    0.0100    0.0100    0.0100    0.0100
    0.0100    0.0100    0.0100    0.0100    0.0100    0.0100    0.0100    0.0100
    0.0100    0.0100    0.0100    0.0100    0.0100    0.0100    0.0100    0.0100
    0.0100    0.0100    0.0100    0.0100    0.0100    0.0100    0.0100    0.0100
    0.0100    0.0100    0.0100    0.0100    0.0100    0.0100    0.0100    0.0100
    0.0100    0.0100    0.0100    0.0100    0.0100    0.0100    0.0100    0.0100
    0.0100    0.0100    0.0100    0.0100    0.0100    0.0100    0.0100    0.0100
    0.0100    0.0100    0.0100    0.0100    0.0100    0.0100    0.0100    0.0100
    0.0100    0.0100    0.0100    0.0100    0.0100    0.0100    0.0100    0.0100
    0.0100    0.0100    0.0100    0.0100    0.0100    0.0100    0.0100    0.0100
    0.0100    0.0100    0.0100    0.0100    0.0100    0.0100    0.0100    0.0100
    0.0100    0.0100    0.0100    0.0100    0.0100    0.0100    0.0100    0.0100
    0.0100    0.0100    0.0100    0.0100    0.0100    0.0100    0.0100    0.0100
    0.0100    0.0100    0.0100    0.0100    0.0100    0.0100    0.0100    0.0100
    0.0100    0.0100    0.0100    0.0100    0.0100    0.0100    0.0100    0.0100
    0.0100    0.0100    0.0100    0.0100    0.0100    0.0100    0.0100    0.0100
    0.0100    0.0100    0.0100    0.0100    0.0100    0.0100    0.0100    0.0100
    0.0100    0.0100    0.0100    0.0100    0.0100    0.0100    0.0100    0.0100
    0.0100    0.0100    0.0100    0.0100    0.0100    0.0100    0.0100    0.0100
    0.0100    0.0100    0.0100    0.0100    0.0100    0.0100    0.0100    0.0100
    0.0100    0.0100    0.0100    0.0100    0.0100    0.0100    0.0100    0.0100
    0.0100    0.0100    0.0100    0.0100    0.0100    0.0100    0.0100    0.0100
    0.0100    0.0100    0.0100    0.0100    0.0100    0.0100    0.0100    0.0100
    0.0100    0.0100    0.0100    0.0100    0.0100    0.0100    0.0100    0.0100
    0.0100    0.0100    0.0100    0.0100    0.0100    0.0100    0.0100    0.0100
    0.0100    0.0100    0.0100    0.0100    0.0100    0.0100    0.0100    0.0100
    0.0100    0.0100    0.0100    0.0100    0.0100    0.0100    0.0100    0.0100
    0.0100    0.0100    0.0100    0.0100    0.0100    0.0100    0.0100    0.0100
    0.0100    0.0100    0.0100    0.0100    0.0100    0.0100    0.0100    0.0100
    0.0100    0.0100    0.0100    0.0100    0.0100    0.0100    0.0100    0.0100
    0.0100    0.0100    0.0100    0.0100    0.0100    0.0100    0.0100    0.0100
    0.0100    0.0100    0.0100    0.0100    0.0100    0.0100    0.0100    0.0100
    0.0100    0.0100    0.0100    0.0100    0.0100    0.0100    0.0100    0.0100
    0.0100    0.0100    0.0100    0.0100    0.0100    0.0100    0.0100    0.0100
    0.0100    0.0100    0.0100    0.0100    0.0100    0.0100    0.0100    0.0100
    0.0100    0.0100    0.0100    0.0100    0.0100    0.0100    0.0100    0.0100
    0.0100    0.0100    0.0100    0.0100    0.0100    0.0100    0.0100    0.0100
    0.0100    0.0100    0.0100    0.0100    0.0100    0.0100    0.0100    0.0100
    0.0100    0.0100    0.0100    0.0100    0.0100    0.0100    0.0100    0.0100
    0.0100    0.0100    0.0100    0.0100    0.0100    0.0100    0.0100    0.0100
    0.0100    0.0100    0.0100    0.0100    0.0100    0.0100    0.0100    0.0100
    0.0100    0.0100    0.0100    0.0100    0.0100    0.0100    0.0100    0.0100
    0.0100    0.0100    0.0100    0.0100    0.0100    0.0100    0.0100    0.0100
    0.0100    0.0100    0.0100    0.0100    0.0100    0.0100    0.0100    0.0100
    0.0100    0.0100    0.0100    0.0100    0.0100    0.0100    0.0100    0.0100
    0.0100    0.0100    0.0100    0.0100    0.0100    0.0100    0.0100    0.0100
    0.0100    0.0100    0.0100    0.0100    0.0100    0.0100    0.0100    0.0100
    0.0100    0.0100    0.0100    0.0100    0.0100    0.0100    0.0100    0.0100
    0.0100    0.0100    0.0100    0.0100    0.0100    0.0100    0.0100    0.0100
    0.0100    0.0100    0.0100    0.0100    0.0100    0.0100    0.0100    0.0100
    0.0100    0.0100    0.0100    0.0100    0.0100    0.0100    0.0100    0.0100
    0.0100    0.0100    0.0100    0.0100    0.0100    0.0100    0.0100    0.0100
    0.0100    0.0100    0.0100    0.0100    0.0100    0.0100    0.0100    0.0100
    0.0100    0.0100    0.0100    0.0100    0.0100    0.0100    0.0100    0.0100
    0.0100    0.0100    0.0100    0.0100    0.0100    0.0100    0.0100    0.0100
    0.0100    0.0100    0.0100    0.0100    0.0100    0.0100    0.0100    0.0100
    0.0100    0.0100    0.0100    0.0100    0.0100    0.0100    0.0100    0.0100
    0.0100    0.0100    0.0100    0.0100    0.0100    0.0100    0.0100    0.0100
    0.0100    0.0100    0.0100    0.0100    0.0100    0.0100    0.0100    0.0100
    0.0100    0.0100    0.0100    0.0100    0.0100    0.0100    0.0100    0.0100
    0.0100    0.0100    0.0100    0.0100    0.0100    0.0100    0.0100    0.0100
    0.0100    0.0100    0.0100    0.0100    0.0100    0.0100    0.0100    0.0100
    0.0100    0.0100    0.0100    0.0100    0.0100    0.0100    0.0100    0.0100
    0.0100    0.0100    0.0100    0.0100    0.0100    0.0100    0.0100    0.0100
    0.0100    0.0100    0.0100    0.0100    0.0100    0.0100    0.0100    0.0100
    0.0100    0.0100    0.0100    0.0100    0.0100    0.0100    0.0100    0.0100
   </PP_RAB>
 </PP_MESH>
  <PP_LOCAL type="real"  size=" 600" columns="4">
   -5.2598290316E+01   -5.2596352015E+01   -5.2590541822E+01   -5.2580854557E+01
   -5.2567285040E+01   -5.2549826362E+01   -5.2528470236E+01   -5.2503207398E+01
   -5.2474028062E+01   -5.2440922405E+01   -5.2403881052E+01   -5.2362895554E+01
   -5.2317958837E+01   -5.2269065602E+01   -5.2216212680E+01   -5.2159399314E+01
   -5.2098627380E+01   -5.2033901537E+01   -5.1965229318E+01   -5.1892621147E+01
   -5.1816090311E+01   -5.1735652879E+01   -5.1651327578E+01   -5.1563135638E+01
   -5.1471100613E+01   -5.1375248179E+01   -5.1275605931E+01   -5.1172203167E+01
   -5.1065070674E+01   -5.0954240523E+01   -5.0839745872E+01   -5.0721620778E+01
   -5.0599900030E+01   -5.0474618989E+01   -5.0345813455E+01   -5.0213519544E+01
   -5.0077773591E+01   -4.9938612063E+01   -4.9796071498E+01   -4.9650188457E+01
   -4.9500999497E+01   -4.9348541157E+01   -4.9192849964E+01   -4.9033962447E+01
   -4.8871915176E+01   -4.8706744801E+01   -4.8538488115E+01   -4.8367182114E+01
   -4.8192864081E+01   -4.8015571660E+01   -4.7835342956E+01   -4.7652216622E+01
   -4.7466231952E+01   -4.7277428994E+01   -4.7085848634E+01   -4.6891532691E+01
   -4.6694524028E+01   -4.6494866609E+01   -4.6292605624E+01   -4.6087787517E+01
   -4.5880460092E+01   -4.5670672558E+01   -4.5458475548E+01   -4.5243921232E+01
   -4.5027063265E+01   -4.4807956834E+01   -4.4586658708E+01   -4.4363227174E+01
   -4.4137722030E+01   -4.3910204616E+01   -4.3680737744E+01   -4.3449385660E+01
   -4.3216214002E+01   -4.2981289737E+01   -4.2744681143E+01   -4.2506457716E+01
   -4.2266690106E+01   -4.2025450046E+01   -4.1782810292E+01   -4.1538844538E+01
   -4.1293627352E+01   -4.1047234096E+01   -4.0799740850E+01   -4.0551224341E+01
   -4.0301761869E+01   -4.0051431231E+01   -3.9800310652E+01   -3.9548478711E+01
   -3.9296014275E+01   -3.9042996431E+01   -3.8789504412E+01   -3.8535617541E+01
   -3.8281415159E+01   -3.8026976563E+01   -3.7772380943E+01   -3.7517707321E+01
   -3.7263034486E+01   -3.7008440942E+01   -3.6754004844E+01   -3.6499803911E+01
   -3.6245915396E+01   -3.5992416012E+01   -3.5739381874E+01   -3.5486888442E+01
   -3.5235010502E+01   -3.4983821952E+01   -3.4733395879E+01   -3.4483804458E+01
   -3.4235118911E+01   -3.3987409480E+01   -3.3740745115E+01   -3.3495193669E+01
   -3.3250821758E+01   -3.3007694901E+01   -3.2765876848E+01   -3.2525430053E+01
   -3.2286415537E+01   -3.2048892892E+01   -3.1812919608E+01   -3.1578551674E+01
   -3.1345843630E+01   -3.1114847720E+01   -3.0885614256E+01   -3.0658191983E+01
   -3.0432627468E+01   -3.0208964736E+01   -2.9987246253E+01   -2.9767512267E+01
   -2.9549800048E+01   -2.9334145397E+01   -2.9120581579E+01   -2.8909138738E+01
   -2.8699845752E+01   -2.8492728206E+01   -2.8287808898E+01   -2.8085109623E+01
   -2.7884647593E+01   -2.7686438546E+01   -2.7490496077E+01   -2.7296829429E+01
   -2.7105447355E+01   -2.6916354168E+01   -2.6729552116E+01   -2.6545041745E+01
   -2.6362818685E+01   -2.6182878768E+01   -2.6005212399E+01   -2.5829809106E+01
   -2.5656655366E+01   -2.5485734004E+01   -2.5317027570E+01   -2.5150512560E+01
   -2.4986166793E+01   -2.4823961628E+01   -2.4663868991E+01   -2.4505856093E+01
   -2.4349888730E+01   -2.4195929893E+01   -2.4043939575E+01   -2.3893875712E+01
   -2.3745695905E+01   -2.3599356562E+01   -2.3454817707E+01   -2.3312038261E+01
   -2.3170981179E+01   -2.3031607760E+01   -2.2893883722E+01   -2.2757772736E+01
   -2.2623243120E+01   -2.2490260930E+01   -2.2358796906E+01   -2.2228819481E+01
   -2.2100301636E+01   -2.1973214173E+01   -2.1847532111E+01   -2.1723228599E+01
   -2.1600280475E+01   -2.1478663204E+01   -2.1358355215E+01   -2.1239334226E+01
   -2.1121580031E+01   -2.1005072503E+01   -2.0889792595E+01   -2.0775722188E+01
   -2.0662843223E+01   -2.0551139380E+01   -2.0440593469E+01   -2.0331190654E+01
   -2.0222914684E+01   -2.0115751630E+01   -2.0009686570E+01   -1.9904705844E+01
   -1.9800795774E+01   -1.9697942925E+01   -1.9596134555E+01   -1.9495357473E+01
   -1.9395599490E+01   -1.9296847886E+01   -1.9199090561E+01   -1.9102315308E+01
   -1.9006510007E+01   -1.8911662735E+01   -1.8817761445E+01   -1.8724794256E+01
   -1.8632749244E+01   -1.8541614461E+01   -1.8451377966E+01   -1.8362027833E+01
   -1.8273551965E+01   -1.8185938412E+01   -1.8099174992E+01   -1.8013249568E+01
   -1.7928150029E+01   -1.7843863852E+01   -1.7760378973E+01   -1.7677682540E+01
   -1.7595761509E+01   -1.7514602749E+01   -1.7434194692E+01   -1.7354523978E+01
   -1.7275579901E+01   -1.7197353302E+01   -1.7119833232E+01   -1.7043011183E+01
   -1.6966877963E+01   -1.6891424328E+01   -1.6816641034E+01   -1.6742518449E+01
   -1.6669047792E+01   -1.6596220611E+01   -1.6524027678E+01   -1.6452461220E+01
   -1.6381513066E+01   -1.6311174807E+01   -1.6241438983E+01   -1.6172297606E+01
   -1.6103742877E+01   -1.6035767665E+01   -1.5968364284E+01   -1.5901525542E+01
   -1.5835244587E+01   -1.5769514037E+01   -1.5704327238E+01   -1.5639677610E+01
   -1.5575558090E+01   -1.5511962480E+01   -1.5448884471E+01   -1.5386317311E+01
   -1.5324255190E+01   -1.5262692065E+01   -1.5201621485E+01   -1.5141037970E+01
   -1.5080935743E+01   -1.5021308652E+01   -1.4962151488E+01   -1.4903458740E+01
   -1.4845224542E+01   -1.4787443912E+01   -1.4730111607E+01   -1.4673222045E+01
   -1.4616770426E+01   -1.4560751778E+01   -1.4505160800E+01   -1.4449992835E+01
   -1.4395243180E+01   -1.4340906816E+01   -1.4286979189E+01   -1.4233455863E+01
   -1.4180332109E+01   -1.4127603433E+01   -1.4075265671E+01   -1.4023314378E+01
   -1.3971745093E+01   -1.3920553913E+01   -1.3869736687E+01   -1.3819288956E+01
   -1.3769207072E+01   -1.3719487081E+01   -1.3670124793E+01   -1.3621116521E+01
   -1.3572458586E+01   -1.3524147089E+01   -1.3476178260E+01   -1.3428548695E+01
   -1.3381254791E+01   -1.3334292676E+01   -1.3287659207E+01   -1.3241350957E+01
   -1.3195364310E+01   -1.3149696004E+01   -1.3104342887E+01   -1.3059301643E+01
   -1.3014568836E+01   -1.2970141592E+01   -1.2926016794E+01   -1.2882191131E+01
   -1.2838661683E+01   -1.2795425577E+01   -1.2752479798E+01   -1.2709821204E+01
   -1.2667447196E+01   -1.2625354942E+01   -1.2583541451E+01   -1.2542004004E+01
   -1.2500740022E+01   -1.2459746803E+01   -1.2419021402E+01   -1.2378561470E+01
   -1.2338364447E+01   -1.2298427680E+01   -1.2258748523E+01   -1.2219324706E+01
   -1.2180153775E+01   -1.2141233125E+01   -1.2102560411E+01   -1.2064133402E+01
   -1.2025949757E+01   -1.1988006931E+01   -1.1950302840E+01   -1.1912835294E+01
   -1.1875602051E+01   -1.1838600670E+01   -1.1801829251E+01   -1.1765285666E+01
   -1.1728967738E+01   -1.1692873223E+01   -1.1657000282E+01   -1.1621346886E+01
   -1.1585910932E+01   -1.1550690339E+01   -1.1515683333E+01   -1.1480887981E+01
   -1.1446302260E+01   -1.1411924221E+01   -1.1377752160E+01   -1.1343784236E+01
   -1.1310018513E+01   -1.1276453142E+01   -1.1243086498E+01   -1.1209916826E+01
   -1.1176942282E+01   -1.1144161091E+01   -1.1111571711E+01   -1.1079172470E+01
   -1.1046961623E+01   -1.1014937439E+01   -1.0983098469E+01   -1.0951443115E+01
   -1.0919969741E+01   -1.0888676635E+01   -1.0857562441E+01   -1.0826625637E+01
   -1.0795864699E+01   -1.0765277911E+01   -1.0734864016E+01   -1.0704621563E+01
   -1.0674549100E+01   -1.0644645021E+01   -1.0614908037E+01   -1.0585336810E+01
   -1.0555929954E+01   -1.0526685986E+01   -1.0497603558E+01   -1.0468681446E+01
   -1.0439918333E+01   -1.0411312862E+01   -1.0382863607E+01   -1.0354569465E+01
   -1.0326429176E+01   -1.0298441484E+01   -1.0270604982E+01   -1.0242918570E+01
   -1.0215381086E+01   -1.0187991331E+01   -1.0160748037E+01   -1.0133649980E+01
   -1.0106696130E+01   -1.0079885345E+01   -1.0053216482E+01   -1.0026688241E+01
   -1.0000299662E+01   -9.9740496744E+00   -9.9479371890E+00   -9.9219610530E+00
   -9.8961201451E+00   -9.8704135374E+00   -9.8448401909E+00   -9.8193990665E+00
   -9.7940889970E+00   -9.7689090672E+00   -9.7438583270E+00   -9.7189357859E+00
   -9.6941404336E+00   -9.6694711609E+00   -9.6449271663E+00   -9.6205075054E+00
   -9.5962112338E+00   -9.5720373395E+00   -9.5479848686E+00   -9.5240530155E+00
   -9.5002408796E+00   -9.4765475606E+00   -9.4529720549E+00   -9.4295135373E+00
   -9.4061712043E+00   -9.3829441976E+00   -9.3598316587E+00   -9.3368326015E+00
   -9.3139463033E+00   -9.2911719707E+00   -9.2685087854E+00   -9.2459559290E+00
   -9.2235124409E+00   -9.2011776760E+00   -9.1789508592E+00   -9.1568312103E+00
   -9.1348179442E+00   -9.1129101478E+00   -9.0911072155E+00   -9.0694084037E+00
   -9.0478129684E+00   -9.0263201598E+00   -9.0049291066E+00   -8.9836392340E+00
   -8.9624498327E+00   -8.9413601936E+00   -8.9203696075E+00   -8.8994772295E+00
   -8.8786825169E+00   -8.8579847950E+00   -8.8373833877E+00   -8.8168776188E+00
   -8.7964666936E+00   -8.7761500648E+00   -8.7559271047E+00   -8.7357971687E+00
   -8.7157596121E+00   -8.6958136965E+00   -8.6759588517E+00   -8.6561945033E+00
   -8.6365200365E+00   -8.6169348369E+00   -8.5974382281E+00   -8.5780296007E+00
   -8.5587084382E+00   -8.5394741546E+00   -8.5203261641E+00   -8.5012638587E+00
   -8.4822865741E+00   -8.4633938561E+00   -8.4445851461E+00   -8.4258598854E+00
   -8.4072175155E+00   -8.3886573776E+00   -8.3701790097E+00   -8.3517819030E+00
   -8.3334655251E+00   -8.3152293432E+00   -8.2970727779E+00   -8.2789952775E+00
   -8.2609964090E+00   -8.2430756648E+00   -8.2252325370E+00   -8.2074665179E+00
   -8.1897769949E+00   -8.1721635724E+00   -8.1546257794E+00   -8.1371631316E+00
   -8.1197751450E+00   -8.1024612962E+00   -8.0852210703E+00   -8.0680540826E+00
   -8.0509598717E+00   -8.0339379757E+00   -8.0169879333E+00   -8.0001092025E+00
   -7.9833013836E+00   -7.9665640696E+00   -7.9498968205E+00   -7.9332991961E+00
   -7.9167707544E+00   -7.9003109507E+00   -7.8839194718E+00   -7.8675958983E+00
   -7.8513398104E+00   -7.8351507887E+00   -7.8190283851E+00   -7.8029721335E+00
   -7.7869817133E+00   -7.7710567245E+00   -7.7551967671E+00   -7.7394014409E+00
   -7.7236703003E+00   -7.7080029382E+00   -7.6923990334E+00   -7.6768582046E+00
   -7.6613800702E+00   -7.6459642490E+00   -7.6306103044E+00   -7.6153178706E+00
   -7.6000866323E+00   -7.5849162261E+00   -7.5698062881E+00   -7.5547564548E+00
   -7.5397663058E+00   -7.5248354989E+00   -7.5099637317E+00   -7.4951506576E+00
   -7.4803959299E+00   -7.4656992017E+00   -7.4510600752E+00   -7.4364782154E+00
   -7.4219533394E+00   -7.4074851164E+00   -7.3930732160E+00   -7.3787173076E+00
   -7.3644170214E+00   -7.3501720149E+00   -7.3359820300E+00   -7.3218467516E+00
   -7.3077658645E+00   -7.2937390536E+00   -7.2797659829E+00   -7.2658462881E+00
   -7.2519797416E+00   -7.2381660428E+00   -7.2244048914E+00   -7.2106959868E+00
   -7.1970390285E+00   -7.1834336294E+00   -7.1698795848E+00   -7.1563766122E+00
   -7.1429244252E+00   -7.1295227373E+00   -7.1161712620E+00   -7.1028696571E+00
   -7.0896176658E+00   -7.0764150490E+00   -7.0632615336E+00   -7.0501568465E+00
   -7.0371007145E+00   -7.0240928462E+00   -7.0111329205E+00   -6.9982207456E+00
   -6.9853560613E+00   -6.9725386070E+00   -6.9597681225E+00   -6.9470443472E+00
   -6.9343669596E+00   -6.9217357448E+00   -6.9091504788E+00   -6.8966109132E+00
   -6.8841167998E+00   -6.8716678903E+00   -6.8592639239E+00   -6.8469045962E+00
   -6.8345897407E+00   -6.8223191208E+00   -6.8100924998E+00   -6.7979096410E+00
   -6.7857703077E+00   -6.7736742218E+00   -6.7616211531E+00   -6.7496109161E+00
   -6.7376432853E+00   -6.7257180350E+00   -6.7138349395E+00   -6.7019937733E+00
   -6.6901942488E+00   -6.6784361925E+00   -6.6667194069E+00   -6.6550436768E+00
   -6.6434087872E+00   -6.6318145230E+00   -6.6202606689E+00   -6.6087469351E+00
   -6.5972731886E+00   -6.5858392264E+00   -6.5744448435E+00   -6.5630898347E+00
   -6.5517739949E+00   -6.5404971126E+00   -6.5292589209E+00   -6.5180592931E+00
   -6.5068980336E+00   -6.4957749469E+00   -6.4846898375E+00   -6.4736425097E+00
   -6.4626327595E+00   -6.4516603357E+00   -6.4407251169E+00   -6.4298269166E+00
   -6.4189655485E+00   -6.4081408261E+00   -6.3973525630E+00   -6.3866005684E+00
   -6.3758845933E+00   -6.3652045272E+00   -6.3545601923E+00   -6.3439514110E+00
  </PP_LOCAL>
 <PP_NONLOCAL>
   <PP_BETA.1
       type="real"
       size=" 600"
       columns="4"
       index="1"
       angular_momentum="0"
       cutoff_radius_index=" 316"
       cutoff_radius="    3.1500000000E+00" >
    0.0000000000E+00    5.6308689294E-02    1.1252674305E-01    1.6856368644E-01
    2.2432936574E-01    2.7973410825E-01    3.3468888139E-01    3.8910545071E-01
    4.4289653663E-01    4.9597596952E-01    5.4825884301E-01    5.9966166510E-01
    6.5010250698E-01    6.9950114921E-01    7.4777922505E-01    7.9486036059E-01
    8.4067031168E-01    8.8513709708E-01    9.2819112792E-01    9.6976533308E-01
    1.0097952801E+00    1.0482192921E+00    1.0849785589E+00    1.1200172447E+00
    1.1532825893E+00    1.1847250047E+00    1.2142981659E+00    1.2419590961E+00
    1.2676682460E+00    1.2913895670E+00    1.3130905781E+00    1.3327424268E+00
    1.3503199428E+00    1.3658016851E+00    1.3791699847E+00    1.3904109751E+00
    1.3995146223E+00    1.4064747418E+00    1.4112890130E+00    1.4139589835E+00
    1.4144900672E+00    1.4128915345E+00    1.4091764960E+00    1.4033618775E+00
    1.3954683889E+00    1.3855204843E+00    1.3735463157E+00    1.3595776785E+00
    1.3436499504E+00    1.3258020235E+00    1.3060762254E+00    1.2845182376E+00
    1.2611770095E+00    1.2361046513E+00    1.2093563389E+00    1.1809902024E+00
    1.1510671987E+00    1.1196510088E+00    1.0868078793E+00    1.0526065189E+00
    1.0171179296E+00    9.8041527152E-01    9.4257373183E-01    9.0367031211E-01
    8.6378372964E-01    8.2299423122E-01    7.8138338391E-01    7.3903395550E-01
    6.9602974266E-01    6.5245533268E-01    6.0839595825E-01    5.6393732258E-01
    5.1916540552E-01    4.7416630030E-01    4.2902595945E-01    3.8383005702E-01
    3.3866380045E-01    2.9361173632E-01    2.4875756386E-01    2.0418395013E-01
    1.5997234707E-01    1.1620281107E-01    7.2953825447E-02    3.0302126307E-02
   -1.1677467777E-02   -5.2912221759E-02   -9.3331645385E-02   -1.3286764924E-01
   -1.7145469515E-01   -2.0902994048E-01   -2.4553337586E-01   -2.8090795591E-01
   -3.1509972256E-01   -3.4805792044E-01   -3.7973510399E-01   -4.1008723588E-01
   -4.3907377631E-01   -4.6665772353E-01   -4.9280573575E-01   -5.1748828393E-01
   -5.4067954332E-01   -5.6235749410E-01   -5.8250395085E-01   -6.0110456521E-01
   -6.1814875156E-01   -6.3363006981E-01   -6.4754580142E-01   -6.5989705585E-01
   -6.7068870132E-01   -6.7992931395E-01   -6.8763143217E-01   -6.9381108952E-01
   -6.9848787263E-01   -7.0168471770E-01   -7.0342827641E-01   -7.0374831310E-01
   -7.0267772686E-01   -7.0025247509E-01   -6.9651156352E-01   -6.9149666109E-01
   -6.8525208622E-01   -6.7782469241E-01   -6.6926356896E-01   -6.5962001679E-01
   -6.4894735279E-01   -6.3730049692E-01   -6.2473615812E-01   -6.1131254517E-01
   -5.9708868372E-01   -5.8212504819E-01   -5.6648291712E-01   -5.5022364755E-01
   -5.3340983840E-01   -5.1610376053E-01   -4.9836736600E-01   -4.8026378116E-01