<UPF version="2.0.1">
  <PP_INFO>

 This pseudopotential file has been produced using the code
 ONCVPSP  (Optimized Norm-Conservinng Vanderbilt PSeudopotential)
 scalar-relativistic version 3.0.0 10/10/2014 by D. R. Hamann
 The code is available through a link at URL www.mat-simresearch.com.
 Documentation with the package provides a full discription of the
 input data below.


 While it is not required under the terms of the GNU GPL, it is
 suggested that you cite D. R. Hamann, Phys. Rev. B 88, 085117 (2013)
 in any publication using these pseudopotentials.

    <PP_INPUTFILE>
# ATOM AND REFERENCE CONFIGURATION
# atsym  z   nc   nv     iexc    psfile
  Ba 56.00    9    4 -116133      upf
#
#   n    l    f        energy (Ha)
    1    0    2.00
    2    0    2.00
    2    1    6.00
    3    0    2.00
    3    1    6.00
    3    2   10.00
    4    0    2.00
    4    1    6.00
    4    2   10.00
    5    0    2.00
    5    1    6.00
    5    2    1.00
    6    0    1.00
#
# PSEUDOPOTENTIAL AND OPTIMIZATION
# lmax
    3
#
#   l,   rc,     ep,   ncon, nbas, qcut
    0    2.94   -1.19    5    8    4.58
    1    2.94   -0.65    5    8    4.81
    2    2.97   -0.05    5    8    5.74
    3    2.55    0.15    5    8    7.54
#
# LOCAL POTENTIAL
# lloc, lpopt,  rc(5),   dvloc0
    4    5      2.31       0.00
#
# VANDERBILT-KLEINMAN-BYLANDER PROJECTORs
# l, nproj, debl
    0    2    1.0894
    1    2    1.6036
    2    2    1.8366
    3    2    1.3100
#
# MODEL CORE CHARGE
# icmod, fcfact
    0    0.00
#
# LOG DERIVATIVE ANALYSIS
# epsh1, epsh2, depsh
   -5.00    3.00    0.02
#
# OUTPUT GRID
# rlmax, drl
    6.00    0.01
#
# TEST CONFIGURATIONS
# ncnf
    0
# nvcnf
#   n    l    f
    </PP_INPUTFILE>
  </PP_INFO>
  <!--                               -->
  <!-- END OF HUMAN READABLE SECTION -->
  <!--                               -->
    <PP_HEADER
       generated="Generated using ONCVPSP code by D. R. Hamann"
       author="anonymous"
       date="150603"
       comment=""
       element="Ba"
       pseudo_type="NC"
       relativistic="scalar"
       is_ultrasoft="F"
       is_paw="F"
       is_coulomb="F"
       has_so="F"
       has_wfc="F"
       has_gipaw="F"
       core_correction="F"
       functional="PBESOL"
       z_valence="   10.00"
       total_psenergy="  -2.56298412343E+01"
       rho_cutoff="   5.99000000000E+00"
       l_max="3"
       l_local="-1"
       mesh_size="   600"
       number_of_wfc="0"
       number_of_proj="8"/>
 <PP_MESH>
   <PP_R type="real"  size=" 600" columns="8">
    0.0000    0.0100    0.0200    0.0300    0.0400    0.0500    0.0600    0.0700
    0.0800    0.0900    0.1000    0.1100    0.1200    0.1300    0.1400    0.1500
    0.1600    0.1700    0.1800    0.1900    0.2000    0.2100    0.2200    0.2300
    0.2400    0.2500    0.2600    0.2700    0.2800    0.2900    0.3000    0.3100
    0.3200    0.3300    0.3400    0.3500    0.3600    0.3700    0.3800    0.3900
    0.4000    0.4100    0.4200    0.4300    0.4400    0.4500    0.4600    0.4700
    0.4800    0.4900    0.5000    0.5100    0.5200    0.5300    0.5400    0.5500
    0.5600    0.5700    0.5800    0.5900    0.6000    0.6100    0.6200    0.6300
    0.6400    0.6500    0.6600    0.6700    0.6800    0.6900    0.7000    0.7100
    0.7200    0.7300    0.7400    0.7500    0.7600    0.7700    0.7800    0.7900
    0.8000    0.8100    0.8200    0.8300    0.8400    0.8500    0.8600    0.8700
    0.8800    0.8900    0.9000    0.9100    0.9200    0.9300    0.9400    0.9500
    0.9600    0.9700    0.9800    0.9900    1.0000    1.0100    1.0200    1.0300
    1.0400    1.0500    1.0600    1.0700    1.0800    1.0900    1.1000    1.1100
    1.1200    1.1300    1.1400    1.1500    1.1600    1.1700    1.1800    1.1900
    1.2000    1.2100    1.2200    1.2300    1.2400    1.2500    1.2600    1.2700
    1.2800    1.2900    1.3000    1.3100    1.3200    1.3300    1.3400    1.3500
    1.3600    1.3700    1.3800    1.3900    1.4000    1.4100    1.4200    1.4300
    1.4400    1.4500    1.4600    1.4700    1.4800    1.4900    1.5000    1.5100
    1.5200    1.5300    1.5400    1.5500    1.5600    1.5700    1.5800    1.5900
    1.6000    1.6100    1.6200    1.6300    1.6400    1.6500    1.6600    1.6700
    1.6800    1.6900    1.7000    1.7100    1.7200    1.7300    1.7400    1.7500
    1.7600    1.7700    1.7800    1.7900    1.8000    1.8100    1.8200    1.8300
    1.8400    1.8500    1.8600    1.8700    1.8800    1.8900    1.9000    1.9100
    1.9200    1.9300    1.9400    1.9500    1.9600    1.9700    1.9800    1.9900
    2.0000    2.0100    2.0200    2.0300    2.0400    2.0500    2.0600    2.0700
    2.0800    2.0900    2.1000    2.1100    2.1200    2.1300    2.1400    2.1500
    2.1600    2.1700    2.1800    2.1900    2.2000    2.2100    2.2200    2.2300
    2.2400    2.2500    2.2600    2.2700    2.2800    2.2900    2.3000    2.3100
    2.3200    2.3300    2.3400    2.3500    2.3600    2.3700    2.3800    2.3900
    2.4000    2.4100    2.4200    2.4300    2.4400    2.4500    2.4600    2.4700
    2.4800    2.4900    2.5000    2.5100    2.5200    2.5300    2.5400    2.5500
    2.5600    2.5700    2.5800    2.5900    2.6000    2.6100    2.6200    2.6300
    2.6400    2.6500    2.6600    2.6700    2.6800    2.6900    2.7000    2.7100
    2.7200    2.7300    2.7400    2.7500    2.7600    2.7700    2.7800    2.7900
    2.8000    2.8100    2.8200    2.8300    2.8400    2.8500    2.8600    2.8700
    2.8800    2.8900    2.9000    2.9100    2.9200    2.9300    2.9400    2.9500
    2.9600    2.9700    2.9800    2.9900    3.0000    3.0100    3.0200    3.0300
    3.0400    3.0500    3.0600    3.0700    3.0800    3.0900    3.1000    3.1100
    3.1200    3.1300    3.1400    3.1500    3.1600    3.1700    3.1800    3.1900
    3.2000    3.2100    3.2200    3.2300    3.2400    3.2500    3.2600    3.2700
    3.2800    3.2900    3.3000    3.3100    3.3200    3.3300    3.3400    3.3500
    3.3600    3.3700    3.3800    3.3900    3.4000    3.4100    3.4200    3.4300
    3.4400    3.4500    3.4600    3.4700    3.4800    3.4900    3.5000    3.5100
    3.5200    3.5300    3.5400    3.5500    3.5600    3.5700    3.5800    3.5900
    3.6000    3.6100    3.6200    3.6300    3.6400    3.6500    3.6600    3.6700
    3.6800    3.6900    3.7000    3.7100    3.7200    3.7300    3.7400    3.7500
    3.7600    3.7700    3.7800    3.7900    3.8000    3.8100    3.8200    3.8300
    3.8400    3.8500    3.8600    3.8700    3.8800    3.8900    3.9000    3.9100
    3.9200    3.9300    3.9400    3.9500    3.9600    3.9700    3.9800    3.9900
    4.0000    4.0100    4.0200    4.0300    4.0400    4.0500    4.0600    4.0700
    4.0800    4.0900    4.1000    4.1100    4.1200    4.1300    4.1400    4.1500
    4.1600    4.1700    4.1800    4.1900    4.2000    4.2100    4.2200    4.2300
    4.2400    4.2500    4.2600    4.2700    4.2800    4.2900    4.3000    4.3100
    4.3200    4.3300    4.3400    4.3500    4.3600    4.3700    4.3800    4.3900
    4.4000    4.4100    4.4200    4.4300    4.4400    4.4500    4.4600    4.4700
    4.4800    4.4900    4.5000    4.5100    4.5200    4.5300    4.5400    4.5500
    4.5600    4.5700    4.5800    4.5900    4.6000    4.6100    4.6200    4.6300
    4.6400    4.6500    4.6600    4.6700    4.6800    4.6900    4.7000    4.7100
    4.7200    4.7300    4.7400    4.7500    4.7600    4.7700    4.7800    4.7900
    4.8000    4.8100    4.8200    4.8300    4.8400    4.8500    4.8600    4.8700
    4.8800    4.8900    4.9000    4.9100    4.9200    4.9300    4.9400    4.9500
    4.9600    4.9700    4.9800    4.9900    5.0000    5.0100    5.0200    5.0300
    5.0400    5.0500    5.0600    5.0700    5.0800    5.0900    5.1000    5.1100
    5.1200    5.1300    5.1400    5.1500    5.1600    5.1700    5.1800    5.1900
    5.2000    5.2100    5.2200    5.2300    5.2400    5.2500    5.2600    5.2700
    5.2800    5.2900    5.3000    5.3100    5.3200    5.3300    5.3400    5.3500
    5.3600    5.3700    5.3800    5.3900    5.4000    5.4100    5.4200    5.4300
    5.4400    5.4500    5.4600    5.4700    5.4800    5.4900    5.5000    5.5100
    5.5200    5.5300    5.5400    5.5500    5.5600    5.5700    5.5800    5.5900
    5.6000    5.6100    5.6200    5.6300    5.6400    5.6500    5.6600    5.6700
    5.6800    5.6900    5.7000    5.7100    5.7200    5.7300    5.7400    5.7500
    5.7600    5.7700    5.7800    5.7900    5.8000    5.8100    5.8200    5.8300
    5.8400    5.8500    5.8600    5.8700    5.8800    5.8900    5.9000    5.9100
    5.9200    5.9300    5.9400    5.9500    5.9600    5.9700    5.9800    5.9900
   </PP_R>
   <PP_RAB type="real"  size=" 600" columns="8">
    0.0100    0.0100    0.0100    0.0100    0.0100    0.0100    0.0100    0.0100
    0.0100    0.0100    0.0100    0.0100    0.0100    0.0100    0.0100    0.0100
    0.0100    0.0100    0.0100    0.0100    0.0100    0.0100    0.0100    0.0100
    0.0100    0.0100    0.0100    0.0100    0.0100    0.0100    0.0100    0.0100
    0.0100    0.0100    0.0100    0.0100    0.0100    0.0100    0.0100    0.0100
    0.0100    0.0100    0.0100    0.0100    0.0100    0.0100    0.0100    0.0100
    0.0100    0.0100    0.0100    0.0100    0.0100    0.0100    0.0100    0.0100
    0.0100    0.0100    0.0100    0.0100    0.0100    0.0100    0.0100    0.0100
    0.0100    0.0100    0.0100    0.0100    0.0100    0.0100    0.0100    0.0100
    0.0100    0.0100    0.0100    0.0100    0.0100    0.0100    0.0100    0.0100
    0.0100    0.0100    0.0100    0.0100    0.0100    0.0100    0.0100    0.0100
    0.0100    0.0100    0.0100    0.0100    0.0100    0.0100    0.0100    0.0100
    0.0100    0.0100    0.0100    0.0100    0.0100    0.0100    0.0100    0.0100
    0.0100    0.0100    0.0100    0.0100    0.0100    0.0100    0.0100    0.0100
    0.0100    0.0100    0.0100    0.0100    0.0100    0.0100    0.0100    0.0100
    0.0100    0.0100    0.0100    0.0100    0.0100    0.0100    0.0100    0.0100
    0.0100    0.0100    0.0100    0.0100    0.0100    0.0100    0.0100    0.0100
    0.0100    0.0100    0.0100    0.0100    0.0100    0.0100    0.0100    0.0100
    0.0100    0.0100    0.0100    0.0100    0.0100    0.0100    0.0100    0.0100
    0.0100    0.0100    0.0100    0.0100    0.0100    0.0100    0.0100    0.0100
    0.0100    0.0100    0.0100    0.0100    0.0100    0.0100    0.0100    0.0100
    0.0100    0.0100    0.0100    0.0100    0.0100    0.0100    0.0100    0.0100
    0.0100    0.0100    0.0100    0.0100    0.0100    0.0100    0.0100    0.0100
    0.0100    0.0100    0.0100    0.0100    0.0100    0.0100    0.0100    0.0100
    0.0100    0.0100    0.0100    0.0100    0.0100    0.0100    0.0100    0.0100
    0.0100    0.0100    0.0100    0.0100    0.0100    0.0100    0.0100    0.0100
    0.0100    0.0100    0.0100    0.0100    0.0100    0.0100    0.0100    0.0100
    0.0100    0.0100    0.0100    0.0100    0.0100    0.0100    0.0100    0.0100
    0.0100    0.0100    0.0100    0.0100    0.0100    0.0100    0.0100    0.0100
    0.0100    0.0100    0.0100    0.0100    0.0100    0.0100    0.0100    0.0100
    0.0100    0.0100    0.0100    0.0100    0.0100    0.0100    0.0100    0.0100
    0.0100    0.0100    0.0100    0.0100    0.0100    0.0100    0.0100    0.0100
    0.0100    0.0100    0.0100    0.0100    0.0100    0.0100    0.0100    0.0100
    0.0100    0.0100    0.0100    0.0100    0.0100    0.0100    0.0100    0.0100
    0.0100    0.0100    0.0100    0.0100    0.0100    0.0100    0.0100    0.0100
    0.0100    0.0100    0.0100    0.0100    0.0100    0.0100    0.0100    0.0100
    0.0100    0.0100    0.0100    0.0100    0.0100    0.0100    0.0100    0.0100
    0.0100    0.0100    0.0100    0.0100    0.0100    0.0100    0.0100    0.0100
    0.0100    0.0100    0.0100    0.0100    0.0100    0.0100    0.0100    0.0100
    0.0100    0.0100    0.0100    0.0100    0.0100    0.0100    0.0100    0.0100
    0.0100    0.0100    0.0100    0.0100    0.0100    0.0100    0.0100    0.0100
    0.0100    0.0100    0.0100    0.0100    0.0100    0.0100    0.0100    0.0100
    0.0100    0.0100    0.0100    0.0100    0.0100    0.0100    0.0100    0.0100
    0.0100    0.0100    0.0100    0.0100    0.0100    0.0100    0.0100    0.0100
    0.0100    0.0100    0.0100    0.0100    0.0100    0.0100    0.0100    0.0100
    0.0100    0.0100    0.0100    0.0100    0.0100    0.0100    0.0100    0.0100
    0.0100    0.0100    0.0100    0.0100    0.0100    0.0100    0.0100    0.0100
    0.0100    0.0100    0.0100    0.0100    0.0100    0.0100    0.0100    0.0100
    0.0100    0.0100    0.0100    0.0100    0.0100    0.0100    0.0100    0.0100
    0.0100    0.0100    0.0100    0.0100    0.0100    0.0100    0.0100    0.0100
    0.0100    0.0100    0.0100    0.0100    0.0100    0.0100    0.0100    0.0100
    0.0100    0.0100    0.0100    0.0100    0.0100    0.0100    0.0100    0.0100
    0.0100    0.0100    0.0100    0.0100    0.0100    0.0100    0.0100    0.0100
    0.0100    0.0100    0.0100    0.0100    0.0100    0.0100    0.0100    0.0100
    0.0100    0.0100    0.0100    0.0100    0.0100    0.0100    0.0100    0.0100
    0.0100    0.0100    0.0100    0.0100    0.0100    0.0100    0.0100    0.0100
    0.0100    0.0100    0.0100    0.0100    0.0100    0.0100    0.0100    0.0100
    0.0100    0.0100    0.0100    0.0100    0.0100    0.0100    0.0100    0.0100
    0.0100    0.0100    0.0100    0.0100    0.0100    0.0100    0.0100    0.0100
    0.0100    0.0100    0.0100    0.0100    0.0100    0.0100    0.0100    0.0100
    0.0100    0.0100    0.0100    0.0100    0.0100    0.0100    0.0100    0.0100
    0.0100    0.0100    0.0100    0.0100    0.0100    0.0100    0.0100    0.0100
    0.0100    0.0100    0.0100    0.0100    0.0100    0.0100    0.0100    0.0100
    0.0100    0.0100    0.0100    0.0100    0.0100    0.0100    0.0100    0.0100
    0.0100    0.0100    0.0100    0.0100    0.0100    0.0100    0.0100    0.0100
    0.0100    0.0100    0.0100    0.0100    0.0100    0.0100    0.0100    0.0100
    0.0100    0.0100    0.0100    0.0100    0.0100    0.0100    0.0100    0.0100
    0.0100    0.0100    0.0100    0.0100    0.0100    0.0100    0.0100    0.0100
    0.0100    0.0100    0.0100    0.0100    0.0100    0.0100    0.0100    0.0100
    0.0100    0.0100    0.0100    0.0100    0.0100    0.0100    0.0100    0.0100
    0.0100    0.0100    0.0100    0.0100    0.0100    0.0100    0.0100    0.0100
    0.0100    0.0100    0.0100    0.0100    0.0100    0.0100    0.0100    0.0100
    0.0100    0.0100    0.0100    0.0100    0.0100    0.0100    0.0100    0.0100
    0.0100    0.0100    0.0100    0.0100    0.0100    0.0100    0.0100    0.0100
    0.0100    0.0100    0.0100    0.0100    0.0100    0.0100    0.0100    0.0100
   </PP_RAB>
 </PP_MESH>
  <PP_LOCAL type="real"  size=" 600" columns="4">
   -1.9010535419E+01   -1.9012534008E+01   -1.9019120333E+01   -1.9029579815E+01
   -1.9043197872E+01   -1.9059085834E+01   -1.9076268204E+01   -1.9093767250E+01
   -1.9110674288E+01   -1.9126201352E+01   -1.9139711405E+01   -1.9150728870E+01
   -1.9158934453E+01   -1.9164149134E+01   -1.9166311981E+01   -1.9165455653E+01
   -1.9161682457E+01   -1.9155142719E+01   -1.9146016484E+01   -1.9134498791E+01
   -1.9120788455E+01   -1.9105079957E+01   -1.9087557953E+01   -1.9068393896E+01
   -1.9047744266E+01   -1.9025749994E+01   -1.9002536685E+01   -1.8978215414E+01
   -1.8952883824E+01   -1.8926627375E+01   -1.8899520656E+01   -1.8871628653E+01
   -1.8843007943E+01   -1.8813707792E+01   -1.8783771111E+01   -1.8753235324E+01
   -1.8722133100E+01   -1.8690493004E+01   -1.8658340021E+01   -1.8625696039E+01
   -1.8592580234E+01   -1.8559009406E+01   -1.8524998262E+01   -1.8490559662E+01
   -1.8455704822E+01   -1.8420443498E+01   -1.8384784143E+01   -1.8348734040E+01
   -1.8312299427E+01   -1.8275485608E+01   -1.8238297041E+01   -1.8200737430E+01
   -1.8162809809E+01   -1.8124516609E+01   -1.8085859722E+01   -1.8046840575E+01
   -1.8007460165E+01   -1.7967719133E+01   -1.7927617792E+01   -1.7887156188E+01
   -1.7846334124E+01   -1.7805151211E+01   -1.7763606896E+01   -1.7721700491E+01
   -1.7679431209E+01   -1.7636798185E+01   -1.7593800502E+01   -1.7550437217E+01
   -1.7506707377E+01   -1.7462610044E+01   -1.7418144306E+01   -1.7373309301E+01
   -1.7328104225E+01   -1.7282528353E+01   -1.7236581048E+01   -1.7190261773E+01
   -1.7143570106E+01   -1.7096505746E+01   -1.7049068525E+01   -1.7001258420E+01
   -1.6953075556E+01   -1.6904520217E+01   -1.6855592854E+01   -1.6806294090E+01
   -1.6756624729E+01   -1.6706585758E+01   -1.6656178357E+01   -1.6605403897E+01
   -1.6554263953E+01   -1.6502760300E+01   -1.6450894923E+01   -1.6398670015E+01
   -1.6346087983E+01   -1.6293151447E+01   -1.6239863245E+01   -1.6186226432E+01
   -1.6132244280E+01   -1.6077920282E+01   -1.6023258145E+01   -1.5968261792E+01
   -1.5912935376E+01   -1.5857283260E+01   -1.5801310020E+01   -1.5745020446E+01
   -1.5688419531E+01   -1.5631512475E+01   -1.5574304701E+01   -1.5516801821E+01
   -1.5459009647E+01   -1.5400934170E+01   -1.5342581584E+01   -1.5283958280E+01
   -1.5225070819E+01   -1.5165925926E+01   -1.5106530503E+01   -1.5046891640E+01
   -1.4987016572E+01   -1.4926912670E+01   -1.4866587485E+01   -1.4806048712E+01
   -1.4745304168E+01   -1.4684361795E+01   -1.4623229703E+01   -1.4561916097E+01
   -1.4500429274E+01   -1.4438777694E+01   -1.4376969898E+01   -1.4315014495E+01
   -1.4252920240E+01   -1.4190695951E+01   -1.4128350498E+01   -1.4065892883E+01
   -1.4003332143E+01   -1.3940677370E+01   -1.3877937750E+01   -1.3815122488E+01
   -1.3752240851E+01   -1.3689302154E+01   -1.3626315727E+01   -1.3563290954E+01
   -1.3500237230E+01   -1.3437163973E+01   -1.3374080619E+01   -1.3310996607E+01
   -1.3247921385E+01   -1.3184864397E+01   -1.3121835083E+01   -1.3058842863E+01
   -1.2995897161E+01   -1.2933007345E+01   -1.2870182796E+01   -1.2807432825E+01
   -1.2744766733E+01   -1.2682193769E+01   -1.2619723123E+01   -1.2557363969E+01
   -1.2495125363E+01   -1.2433016385E+01   -1.2371045933E+01   -1.2309222982E+01
   -1.2247556256E+01   -1.2186054576E+01   -1.2124726505E+01   -1.2063580679E+01
   -1.2002625482E+01   -1.1941869345E+01   -1.1881320451E+01   -1.1820987015E+01
   -1.1760876994E+01   -1.1700998371E+01   -1.1641358853E+01   -1.1581966184E+01
   -1.1522827789E+01   -1.1463951170E+01   -1.1405343436E+01   -1.1347011844E+01
   -1.1288963157E+01   -1.1231204385E+01   -1.1173741909E+01   -1.1116582494E+01
   -1.1059732141E+01   -1.1003197261E+01   -1.0946983568E+01   -1.0891097041E+01
   -1.0835543130E+01   -1.0780327326E+01   -1.0725454841E+01   -1.0670930623E+01
   -1.0616759678E+01   -1.0562946349E+01   -1.0509495462E+01   -1.0456410805E+01
   -1.0403696761E+01   -1.0351356846E+01   -1.0299394784E+01   -1.0247813949E+01
   -1.0196617297E+01   -1.0145808116E+01   -1.0095388629E+01   -1.0045361776E+01
   -9.9957294171E+00   -9.9464937140E+00   -9.8976565118E+00   -9.8492190090E+00
   -9.8011830996E+00   -9.7535492154E+00   -9.7063185770E+00   -9.6594916283E+00
   -9.6130685136E+00   -9.5670498478E+00   -9.5214348556E+00   -9.4762236148E+00
   -9.4314152824E+00   -9.3870087838E+00   -9.3430035823E+00   -9.2993976201E+00
   -9.2561897242E+00   -9.2133779431E+00   -9.1709598147E+00   -9.1289337695E+00
   -9.0872964613E+00   -9.0460453277E+00   -9.0051775429E+00   -8.9646892384E+00
   -8.9245774795E+00   -8.8848381228E+00   -8.8454669134E+00   -8.8064604050E+00
   -8.7678132626E+00   -8.7295210236E+00   -8.6915790574E+00   -8.6539816131E+00
   -8.6167235165E+00   -8.5797993732E+00   -8.5432036639E+00   -8.5069306848E+00
   -8.4709754105E+00   -8.4353327588E+00   -8.3999971959E+00   -8.3649642512E+00
   -8.3302290379E+00   -8.2957864784E+00   -8.2616324228E+00   -8.2277622498E+00
   -8.1941713420E+00   -8.1608558496E+00   -8.1278114415E+00   -8.0950339299E+00
   -8.0625197661E+00   -8.0302649245E+00   -7.9982656053E+00   -7.9665185607E+00
   -7.9350200822E+00   -7.9037667074E+00   -7.8727554871E+00   -7.8419830367E+00
   -7.8114461768E+00   -7.7811422487E+00   -7.7510681913E+00   -7.7212210551E+00
   -7.6915984562E+00   -7.6621976488E+00   -7.6330158653E+00   -7.6040509725E+00
   -7.5753005210E+00   -7.5467618891E+00   -7.5184331595E+00   -7.4903121353E+00
   -7.4623963602E+00   -7.4346840485E+00   -7.4071731921E+00   -7.3798615980E+00
   -7.3527474591E+00   -7.3258289525E+00   -7.2991041061E+00   -7.2725710907E+00
   -7.2462282118E+00   -7.2200736618E+00   -7.1941056145E+00   -7.1683224389E+00
   -7.1427224185E+00   -7.1173037914E+00   -7.0920649074E+00   -7.0670040844E+00
   -7.0421196409E+00   -7.0174098857E+00   -6.9928731202E+00   -6.9685076601E+00
   -6.9443118488E+00   -6.9202839117E+00   -6.8964221239E+00   -6.8727247570E+00
   -6.8491900895E+00   -6.8258164002E+00   -6.8026019244E+00   -6.7795448554E+00
   -6.7566437120E+00   -6.7338968671E+00   -6.7113025214E+00   -6.6888592248E+00
   -6.6665655534E+00   -6.6444199835E+00   -6.6224209036E+00   -6.6005670254E+00
   -6.5788569233E+00   -6.5572891032E+00   -6.5358621740E+00   -6.5145748372E+00
   -6.4934257294E+00   -6.4724133676E+00   -6.4515365419E+00   -6.4307939746E+00
   -6.4101843447E+00   -6.3897062741E+00   -6.3693586359E+00   -6.3491401922E+00
   -6.3290496485E+00   -6.3090857695E+00   -6.2892474526E+00   -6.2695335179E+00
   -6.2499427035E+00   -6.2304738969E+00   -6.2111260213E+00   -6.1918979516E+00
   -6.1727884633E+00   -6.1537965460E+00   -6.1349211531E+00   -6.1161612120E+00
   -6.0975155396E+00   -6.0789832090E+00   -6.0605632075E+00   -6.0422545125E+00
   -6.0240559855E+00   -6.0059667659E+00   -5.9879858789E+00   -5.9701123466E+00
   -5.9523450868E+00   -5.9346832802E+00   -5.9171259969E+00   -5.8996723069E+00
   -5.8823211704E+00   -5.8650718109E+00   -5.8479233419E+00   -5.8308748768E+00
   -5.8139254269E+00   -5.7970742385E+00   -5.7803204737E+00   -5.7636632872E+00
   -5.7471017451E+00   -5.7306351021E+00   -5.7142625725E+00   -5.6979833501E+00
   -5.6817965591E+00   -5.6657014496E+00   -5.6496972908E+00   -5.6337833143E+00
   -5.6179587051E+00   -5.6022226969E+00   -5.5865746162E+00   -5.5710137303E+00
   -5.5555392883E+00   -5.5401504975E+00   -5.5248467423E+00   -5.5096273242E+00
   -5.4944915444E+00   -5.4794386202E+00   -5.4644679492E+00   -5.4495788802E+00
   -5.4347707470E+00   -5.4200428358E+00   -5.4053944917E+00   -5.3908251303E+00
   -5.3763341167E+00   -5.3619208096E+00   -5.3475844938E+00   -5.3333246511E+00
   -5.3191406760E+00   -5.3050319628E+00   -5.2909978511E+00   -5.2770377671E+00
   -5.2631511726E+00   -5.2493374903E+00   -5.2355961377E+00   -5.2219264597E+00
   -5.2083279898E+00   -5.1948001775E+00   -5.1813424726E+00   -5.1679542818E+00
   -5.1546350618E+00   -5.1413843352E+00   -5.1282015770E+00   -5.1150862626E+00
   -5.1020377953E+00   -5.0890557275E+00   -5.0761395735E+00   -5.0632888331E+00
   -5.0505029938E+00   -5.0377814984E+00   -5.0251239418E+00   -5.0125298471E+00
   -4.9999987371E+00   -4.9875301022E+00   -4.9751234558E+00   -4.9627783937E+00
   -4.9504944613E+00   -4.9382712038E+00   -4.9261081189E+00   -4.9140047771E+00
   -4.9019607792E+00   -4.8899756914E+00   -4.8780490803E+00   -4.8661804556E+00
   -4.8543694319E+00   -4.8426156184E+00   -4.8309186020E+00   -4.8192779691E+00
   -4.8076932453E+00   -4.7961640773E+00   -4.7846900869E+00   -4.7732708802E+00
   -4.7619060629E+00   -4.7505951801E+00   -4.7393378987E+00   -4.7281338574E+00
   -4.7169826805E+00   -4.7058839922E+00   -4.6948373601E+00   -4.6838424611E+00
   -4.6728989540E+00   -4.6620064806E+00   -4.6511646827E+00   -4.6403731539E+00
   -4.6296315707E+00   -4.6189396156E+00   -4.6082969471E+00   -4.5977032238E+00
   -4.5871580682E+00   -4.5766611470E+00   -4.5662121698E+00   -4.5558108109E+00
   -4.5454567446E+00   -4.5351496259E+00   -4.5248891030E+00   -4.5146749148E+00
   -4.5045067507E+00   -4.4943843004E+00   -4.4843072532E+00   -4.4742752335E+00
   -4.4642880091E+00   -4.4543452849E+00   -4.4444467648E+00   -4.4345921528E+00
   -4.4247811109E+00   -4.4150133694E+00   -4.4052886701E+00   -4.3956067307E+00
   -4.3859672691E+00   -4.3763699885E+00   -4.3668145742E+00   -4.3573008065E+00
   -4.3478284164E+00   -4.3383971347E+00   -4.3290066924E+00   -4.3196567741E+00
   -4.3103471495E+00   -4.3010775783E+00   -4.2918478041E+00   -4.2826575702E+00
   -4.2735066083E+00   -4.2643946266E+00   -4.2553214295E+00   -4.2462867724E+00
   -4.2372904107E+00   -4.2283320997E+00   -4.2194115600E+00   -4.2105285628E+00
   -4.2016829002E+00   -4.1928743389E+00   -4.1841026456E+00   -4.1753675873E+00
   -4.1666688787E+00   -4.1580063419E+00   -4.1493797606E+00   -4.1407889125E+00
   -4.1322335752E+00   -4.1237135177E+00   -4.1152284795E+00   -4.1067782966E+00
   -4.0983627570E+00   -4.0899816487E+00   -4.0816347597E+00   -4.0733218594E+00
   -4.0650427201E+00   -4.0567971769E+00   -4.0485850278E+00   -4.0404060706E+00
   -4.0322601030E+00   -4.0241468989E+00   -4.0160662537E+00   -4.0080180053E+00
   -4.0000019607E+00   -3.9920179275E+00   -3.9840657127E+00   -3.9761450979E+00
   -3.9682558928E+00   -3.9603979411E+00   -3.9525710592E+00   -3.9447750632E+00
   -3.9370097695E+00   -3.9292749706E+00   -3.9215704816E+00   -3.9138961560E+00
   -3.9062518183E+00   -3.8986372936E+00   -3.8910524066E+00   -3.8834969642E+00
   -3.8759707789E+00   -3.8684737165E+00   -3.8610056102E+00   -3.8535662927E+00
   -3.8461555972E+00   -3.8387733479E+00   -3.8314193471E+00   -3.8240934761E+00
   -3.8167955756E+00   -3.8095254865E+00   -3.8022830495E+00   -3.7950681054E+00
   -3.7878804506E+00   -3.7807199731E+00   -3.7735865249E+00   -3.7664799541E+00
   -3.7594001089E+00   -3.7523468374E+00   -3.7453199596E+00   -3.7383193369E+00
   -3.7313448437E+00   -3.7243963352E+00   -3.7174736666E+00   -3.7105766933E+00
   -3.7037052612E+00   -3.6968591992E+00   -3.6900384062E+00   -3.6832427441E+00
   -3.6764720748E+00   -3.6697262604E+00   -3.6630051630E+00   -3.6563086119E+00
   -3.6496364936E+00   -3.6429886890E+00   -3.6363650667E+00   -3.6297654949E+00
   -3.6231898423E+00   -3.6166379698E+00   -3.6101097176E+00   -3.6036049968E+00
   -3.5971236818E+00   -3.5906656473E+00   -3.5842307679E+00   -3.5778189180E+00
   -3.5714299492E+00   -3.5650637420E+00   -3.5587201967E+00   -3.5523991939E+00
   -3.5461006140E+00   -3.5398243373E+00   -3.5335702442E+00   -3.5273381810E+00
   -3.5211280590E+00   -3.5149397719E+00   -3.5087732055E+00   -3.5026282459E+00
   -3.4965047791E+00   -3.4904026901E+00   -3.4843218263E+00   -3.4782621185E+00
   -3.4722234579E+00   -3.4662057359E+00   -3.4602088438E+00   -3.4542326728E+00
   -3.4482771082E+00   -3.4423420142E+00   -3.4364273208E+00   -3.4305329245E+00
   -3.4246587216E+00   -3.4188046084E+00   -3.4129704813E+00   -3.4071562291E+00
   -3.4013617251E+00   -3.3955869018E+00   -3.3898316605E+00   -3.3840959023E+00
   -3.3783795285E+00   -3.3726824401E+00   -3.3670045327E+00   -3.3613456814E+00
   -3.3557058244E+00   -3.3500848673E+00   -3.3444827160E+00   -3.3388992763E+00
  </PP_LOCAL>
 <PP_NONLOCAL>
   <PP_BETA.1
       type="real"
       size=" 600"
       columns="4"
       index="1"
       angular_momentum="0"
       cutoff_radius_index=" 302"
       cutoff_radius="    3.0100000000E+00" >
    0.0000000000E+00    2.9048867815E-02    5.8084879741E-02    8.7095166487E-02
    1.1606683206E-01    1.4498694060E-01    1.7384250352E-01    2.0262046698E-01
    2.3130769973E-01    2.5989098156E-01    2.8835699222E-01    3.1669230115E-01
    3.4488335780E-01    3.7291648290E-01    4.0077786053E-01    4.2845353114E-01
    4.5592938569E-01    4.8319116074E-01    5.1022443474E-01    5.3701462554E-01
    5.6354698904E-01    5.8980661920E-01    6.1577844936E-01    6.4144725487E-01
    6.6679765716E-01    6.9181412917E-01    7.1648100225E-01    7.4078247446E-01
    7.6470262036E-01    7.8822540225E-01    8.1133468284E-01    8.3401423939E-01
    8.5624777932E-01    8.7801895704E-01    8.9931139259E-01    9.2010869109E-01
    9.4039446417E-01    9.6015235172E-01    9.7936604637E-01    9.9801931760E-01
    1.0160960379E+00    1.0335802098E+00    1.0504559940E+00    1.0667077381E+00
    1.0823200068E+00    1.0972776124E+00    1.1115656462E+00    1.1251695105E+00
    1.1380749513E+00    1.1502680902E+00    1.1617354594E+00    1.1724640356E+00
    1.1824412708E+00    1.1916551284E+00    1.2000941197E+00    1.2077473275E+00
    1.2146044559E+00    1.2206558434E+00    1.2258925169E+00    1.2303061996E+00
    1.2338893686E+00    1.2366352613E+00    1.2385379201E+00    1.2395922190E+00
    1.2397938788E+00    1.2391395124E+00    1.2376266383E+00    1.2352537011E+00
    1.2320200979E+00    1.2279262063E+00    1.2229733910E+00    1.2171640245E+00
    1.2105014993E+00    1.2029902506E+00    1.1946357614E+00    1.1854445693E+00
    1.1754242756E+00    1.1645835504E+00    1.1529321344E+00    1.1404808400E+00
    1.1272415488E+00    1.1132272073E+00    1.0984518197E+00    1.0829304408E+00
    1.0666791621E+00    1.0497150991E+00    1.0320563742E+00    1.0137220989E+00
    9.9473235267E-01    9.7510815970E-01    9.5487146287E-01    9.3404509592E-01
    9.1265275327E-01    8.9071895765E-01    8.6826902561E-01    8.4532903093E-01
    8.2192576618E-01    7.9808670234E-01    7.7383995014E-01    7.4921421890E-01
    7.2423874718E-01    6.9894327986E-01    6.7335801229E-01    6.4751354091E-01
    6.2144082410E-01    5.9517112962E-01    5.6873591992E-01    5.4216686996E-01
    5.1549579155E-01    4.8875461845E-01    4.6197527613E-01    4.3518961026E-01
    4.0842941185E-01    3.8172637776E-01    3.5511199884E-01    3.2861739006E-01
    3.0227342281E-01    2.7611071818E-01    2.5015932911E-01    2.2444879279E-01
    1.9900823032E-01    1.7386628589E-01    1.4905064581E-01    1.2458848573E-01
    1.0050653015E-01    7.6830211082E-02    5.3584361995E-02    3.0793282156E-02
    8.4798016346E-03   -1.3333976653E-02   -3.4626503911E-02   -5.5377996791E-02
   -7.5569283964E-02   -9.5182057582E-02   -1.1419975708E-01   -1.3260635292E-01