<UPF version="2.0.1">
  <PP_INFO>

 This pseudopotential file has been produced using the code
 ONCVPSP  (Optimized Norm-Conservinng Vanderbilt PSeudopotential)
 scalar-relativistic version 3.0.0 10/10/2014 by D. R. Hamann
 The code is available through a link at URL www.mat-simresearch.com.
 Documentation with the package provides a full discription of the
 input data below.


 While it is not required under the terms of the GNU GPL, it is
 suggested that you cite D. R. Hamann, Phys. Rev. B 88, 085117 (2013)
 in any publication using these pseudopotentials.

    <PP_INPUTFILE>
# ATOM AND REFERENCE CONFIGURATION
# atsym  z   nc   nv     iexc    psfile
  He  2.00    0    1 -116133      upf
#
#   n    l    f        energy (Ha)
    1    0    2.00
#
# PSEUDOPOTENTIAL AND OPTIMIZATION
# lmax
    0
#
#   l,   rc,     ep,   ncon, nbas, qcut
    0    1.99   -0.57    5    8    7.17
#
# LOCAL POTENTIAL
# lloc, lpopt,  rc(5),   dvloc0
    4    5      0.89       0.00
#
# VANDERBILT-KLEINMAN-BYLANDER PROJECTORs
# l, nproj, debl
    0    2    1.3402
#
# MODEL CORE CHARGE
# icmod, fcfact
    0    0.00
#
# LOG DERIVATIVE ANALYSIS
# epsh1, epsh2, depsh
   -5.00    3.00    0.02
#
# OUTPUT GRID
# rlmax, drl
    6.00    0.01
#
# TEST CONFIGURATIONS
# ncnf
    0
# nvcnf
#   n    l    f
    </PP_INPUTFILE>
  </PP_INFO>
  <!--                               -->
  <!-- END OF HUMAN READABLE SECTION -->
  <!--                               -->
    <PP_HEADER
       generated="Generated using ONCVPSP code by D. R. Hamann"
       author="anonymous"
       date="150603"
       comment=""
       element="He"
       pseudo_type="NC"
       relativistic="scalar"
       is_ultrasoft="F"
       is_paw="F"
       is_coulomb="F"
       has_so="F"
       has_wfc="F"
       has_gipaw="F"
       core_correction="F"
       functional="PBESOL"
       z_valence="    2.00"
       total_psenergy="  -2.76071778571E+00"
       rho_cutoff="   5.99000000000E+00"
       l_max="0"
       l_local="-1"
       mesh_size="   600"
       number_of_wfc="0"
       number_of_proj="2"/>
 <PP_MESH>
   <PP_R type="real"  size=" 600" columns="8">
    0.0000    0.0100    0.0200    0.0300    0.0400    0.0500    0.0600    0.0700
    0.0800    0.0900    0.1000    0.1100    0.1200    0.1300    0.1400    0.1500
    0.1600    0.1700    0.1800    0.1900    0.2000    0.2100    0.2200    0.2300
    0.2400    0.2500    0.2600    0.2700    0.2800    0.2900    0.3000    0.3100
    0.3200    0.3300    0.3400    0.3500    0.3600    0.3700    0.3800    0.3900
    0.4000    0.4100    0.4200    0.4300    0.4400    0.4500    0.4600    0.4700
    0.4800    0.4900    0.5000    0.5100    0.5200    0.5300    0.5400    0.5500
    0.5600    0.5700    0.5800    0.5900    0.6000    0.6100    0.6200    0.6300
    0.6400    0.6500    0.6600    0.6700    0.6800    0.6900    0.7000    0.7100
    0.7200    0.7300    0.7400    0.7500    0.7600    0.7700    0.7800    0.7900
    0.8000    0.8100    0.8200    0.8300    0.8400    0.8500    0.8600    0.8700
    0.8800    0.8900    0.9000    0.9100    0.9200    0.9300    0.9400    0.9500
    0.9600    0.9700    0.9800    0.9900    1.0000    1.0100    1.0200    1.0300
    1.0400    1.0500    1.0600    1.0700    1.0800    1.0900    1.1000    1.1100
    1.1200    1.1300    1.1400    1.1500    1.1600    1.1700    1.1800    1.1900
    1.2000    1.2100    1.2200    1.2300    1.2400    1.2500    1.2600    1.2700
    1.2800    1.2900    1.3000    1.3100    1.3200    1.3300    1.3400    1.3500
    1.3600    1.3700    1.3800    1.3900    1.4000    1.4100    1.4200    1.4300
    1.4400    1.4500    1.4600    1.4700    1.4800    1.4900    1.5000    1.5100
    1.5200    1.5300    1.5400    1.5500    1.5600    1.5700    1.5800    1.5900
    1.6000    1.6100    1.6200    1.6300    1.6400    1.6500    1.6600    1.6700
    1.6800    1.6900    1.7000    1.7100    1.7200    1.7300    1.7400    1.7500
    1.7600    1.7700    1.7800    1.7900    1.8000    1.8100    1.8200    1.8300
    1.8400    1.8500    1.8600    1.8700    1.8800    1.8900    1.9000    1.9100
    1.9200    1.9300    1.9400    1.9500    1.9600    1.9700    1.9800    1.9900
    2.0000    2.0100    2.0200    2.0300    2.0400    2.0500    2.0600    2.0700
    2.0800    2.0900    2.1000    2.1100    2.1200    2.1300    2.1400    2.1500
    2.1600    2.1700    2.1800    2.1900    2.2000    2.2100    2.2200    2.2300
    2.2400    2.2500    2.2600    2.2700    2.2800    2.2900    2.3000    2.3100
    2.3200    2.3300    2.3400    2.3500    2.3600    2.3700    2.3800    2.3900
    2.4000    2.4100    2.4200    2.4300    2.4400    2.4500    2.4600    2.4700
    2.4800    2.4900    2.5000    2.5100    2.5200    2.5300    2.5400    2.5500
    2.5600    2.5700    2.5800    2.5900    2.6000    2.6100    2.6200    2.6300
    2.6400    2.6500    2.6600    2.6700    2.6800    2.6900    2.7000    2.7100
    2.7200    2.7300    2.7400    2.7500    2.7600    2.7700    2.7800    2.7900
    2.8000    2.8100    2.8200    2.8300    2.8400    2.8500    2.8600    2.8700
    2.8800    2.8900    2.9000    2.9100    2.9200    2.9300    2.9400    2.9500
    2.9600    2.9700    2.9800    2.9900    3.0000    3.0100    3.0200    3.0300
    3.0400    3.0500    3.0600    3.0700    3.0800    3.0900    3.1000    3.1100
    3.1200    3.1300    3.1400    3.1500    3.1600    3.1700    3.1800    3.1900
    3.2000    3.2100    3.2200    3.2300    3.2400    3.2500    3.2600    3.2700
    3.2800    3.2900    3.3000    3.3100    3.3200    3.3300    3.3400    3.3500
    3.3600    3.3700    3.3800    3.3900    3.4000    3.4100    3.4200    3.4300
    3.4400    3.4500    3.4600    3.4700    3.4800    3.4900    3.5000    3.5100
    3.5200    3.5300    3.5400    3.5500    3.5600    3.5700    3.5800    3.5900
    3.6000    3.6100    3.6200    3.6300    3.6400    3.6500    3.6600    3.6700
    3.6800    3.6900    3.7000    3.7100    3.7200    3.7300    3.7400    3.7500
    3.7600    3.7700    3.7800    3.7900    3.8000    3.8100    3.8200    3.8300
    3.8400    3.8500    3.8600    3.8700    3.8800    3.8900    3.9000    3.9100
    3.9200    3.9300    3.9400    3.9500    3.9600    3.9700    3.9800    3.9900
    4.0000    4.0100    4.0200    4.0300    4.0400    4.0500    4.0600    4.0700
    4.0800    4.0900    4.1000    4.1100    4.1200    4.1300    4.1400    4.1500
    4.1600    4.1700    4.1800    4.1900    4.2000    4.2100    4.2200    4.2300
    4.2400    4.2500    4.2600    4.2700    4.2800    4.2900    4.3000    4.3100
    4.3200    4.3300    4.3400    4.3500    4.3600    4.3700    4.3800    4.3900
    4.4000    4.4100    4.4200    4.4300    4.4400    4.4500    4.4600    4.4700
    4.4800    4.4900    4.5000    4.5100    4.5200    4.5300    4.5400    4.5500
    4.5600    4.5700    4.5800    4.5900    4.6000    4.6100    4.6200    4.6300
    4.6400    4.6500    4.6600    4.6700    4.6800    4.6900    4.7000    4.7100
    4.7200    4.7300    4.7400    4.7500    4.7600    4.7700    4.7800    4.7900
    4.8000    4.8100    4.8200    4.8300    4.8400    4.8500    4.8600    4.8700
    4.8800    4.8900    4.9000    4.9100    4.9200    4.9300    4.9400    4.9500
    4.9600    4.9700    4.9800    4.9900    5.0000    5.0100    5.0200    5.0300
    5.0400    5.0500    5.0600    5.0700    5.0800    5.0900    5.1000    5.1100
    5.1200    5.1300    5.1400    5.1500    5.1600    5.1700    5.1800    5.1900
    5.2000    5.2100    5.2200    5.2300    5.2400    5.2500    5.2600    5.2700
    5.2800    5.2900    5.3000    5.3100    5.3200    5.3300    5.3400    5.3500
    5.3600    5.3700    5.3800    5.3900    5.4000    5.4100    5.4200    5.4300
    5.4400    5.4500    5.4600    5.4700    5.4800    5.4900    5.5000    5.5100
    5.5200    5.5300    5.5400    5.5500    5.5600    5.5700    5.5800    5.5900
    5.6000    5.6100    5.6200    5.6300    5.6400    5.6500    5.6600    5.6700
    5.6800    5.6900    5.7000    5.7100    5.7200    5.7300    5.7400    5.7500
    5.7600    5.7700    5.7800    5.7900    5.8000    5.8100    5.8200    5.8300
    5.8400    5.8500    5.8600    5.8700    5.8800    5.8900    5.9000    5.9100
    5.9200    5.9300    5.9400    5.9500    5.9600    5.9700    5.9800    5.9900
   </PP_R>
   <PP_RAB type="real"  size=" 600" columns="8">
    0.0100    0.0100    0.0100    0.0100    0.0100    0.0100    0.0100    0.0100
    0.0100    0.0100    0.0100    0.0100    0.0100    0.0100    0.0100    0.0100
    0.0100    0.0100    0.0100    0.0100    0.0100    0.0100    0.0100    0.0100
    0.0100    0.0100    0.0100    0.0100    0.0100    0.0100    0.0100    0.0100
    0.0100    0.0100    0.0100    0.0100    0.0100    0.0100    0.0100    0.0100
    0.0100    0.0100    0.0100    0.0100    0.0100    0.0100    0.0100    0.0100
    0.0100    0.0100    0.0100    0.0100    0.0100    0.0100    0.0100    0.0100
    0.0100    0.0100    0.0100    0.0100    0.0100    0.0100    0.0100    0.0100
    0.0100    0.0100    0.0100    0.0100    0.0100    0.0100    0.0100    0.0100
    0.0100    0.0100    0.0100    0.0100    0.0100    0.0100    0.0100    0.0100
    0.0100    0.0100    0.0100    0.0100    0.0100    0.0100    0.0100    0.0100
    0.0100    0.0100    0.0100    0.0100    0.0100    0.0100    0.0100    0.0100
    0.0100    0.0100    0.0100    0.0100    0.0100    0.0100    0.0100    0.0100
    0.0100    0.0100    0.0100    0.0100    0.0100    0.0100    0.0100    0.0100
    0.0100    0.0100    0.0100    0.0100    0.0100    0.0100    0.0100    0.0100
    0.0100    0.0100    0.0100    0.0100    0.0100    0.0100    0.0100    0.0100
    0.0100    0.0100    0.0100    0.0100    0.0100    0.0100    0.0100    0.0100
    0.0100    0.0100    0.0100    0.0100    0.0100    0.0100    0.0100    0.0100
    0.0100    0.0100    0.0100    0.0100    0.0100    0.0100    0.0100    0.0100
    0.0100    0.0100    0.0100    0.0100    0.0100    0.0100    0.0100    0.0100
    0.0100    0.0100    0.0100    0.0100    0.0100    0.0100    0.0100    0.0100
    0.0100    0.0100    0.0100    0.0100    0.0100    0.0100    0.0100    0.0100
    0.0100    0.0100    0.0100    0.0100    0.0100    0.0100    0.0100    0.0100
    0.0100    0.0100    0.0100    0.0100    0.0100    0.0100    0.0100    0.0100
    0.0100    0.0100    0.0100    0.0100    0.0100    0.0100    0.0100    0.0100
    0.0100    0.0100    0.0100    0.0100    0.0100    0.0100    0.0100    0.0100
    0.0100    0.0100    0.0100    0.0100    0.0100    0.0100    0.0100    0.0100
    0.0100    0.0100    0.0100    0.0100    0.0100    0.0100    0.0100    0.0100
    0.0100    0.0100    0.0100    0.0100    0.0100    0.0100    0.0100    0.0100
    0.0100    0.0100    0.0100    0.0100    0.0100    0.0100    0.0100    0.0100
    0.0100    0.0100    0.0100    0.0100    0.0100    0.0100    0.0100    0.0100
    0.0100    0.0100    0.0100    0.0100    0.0100    0.0100    0.0100    0.0100
    0.0100    0.0100    0.0100    0.0100    0.0100    0.0100    0.0100    0.0100
    0.0100    0.0100    0.0100    0.0100    0.0100    0.0100    0.0100    0.0100
    0.0100    0.0100    0.0100    0.0100    0.0100    0.0100    0.0100    0.0100
    0.0100    0.0100    0.0100    0.0100    0.0100    0.0100    0.0100    0.0100
    0.0100    0.0100    0.0100    0.0100    0.0100    0.0100    0.0100    0.0100
    0.0100    0.0100    0.0100    0.0100    0.0100    0.0100    0.0100    0.0100
    0.0100    0.0100    0.0100    0.0100    0.0100    0.0100    0.0100    0.0100
    0.0100    0.0100    0.0100    0.0100    0.0100    0.0100    0.0100    0.0100
    0.0100    0.0100    0.0100    0.0100    0.0100    0.0100    0.0100    0.0100
    0.0100    0.0100    0.0100    0.0100    0.0100    0.0100    0.0100    0.0100
    0.0100    0.0100    0.0100    0.0100    0.0100    0.0100    0.0100    0.0100
    0.0100    0.0100    0.0100    0.0100    0.0100    0.0100    0.0100    0.0100
    0.0100    0.0100    0.0100    0.0100    0.0100    0.0100    0.0100    0.0100
    0.0100    0.0100    0.0100    0.0100    0.0100    0.0100    0.0100    0.0100
    0.0100    0.0100    0.0100    0.0100    0.0100    0.0100    0.0100    0.0100
    0.0100    0.0100    0.0100    0.0100    0.0100    0.0100    0.0100    0.0100
    0.0100    0.0100    0.0100    0.0100    0.0100    0.0100    0.0100    0.0100
    0.0100    0.0100    0.0100    0.0100    0.0100    0.0100    0.0100    0.0100
    0.0100    0.0100    0.0100    0.0100    0.0100    0.0100    0.0100    0.0100
    0.0100    0.0100    0.0100    0.0100    0.0100    0.0100    0.0100    0.0100
    0.0100    0.0100    0.0100    0.0100    0.0100    0.0100    0.0100    0.0100
    0.0100    0.0100    0.0100    0.0100    0.0100    0.0100    0.0100    0.0100
    0.0100    0.0100    0.0100    0.0100    0.0100    0.0100    0.0100    0.0100
    0.0100    0.0100    0.0100    0.0100    0.0100    0.0100    0.0100    0.0100
    0.0100    0.0100    0.0100    0.0100    0.0100    0.0100    0.0100    0.0100
    0.0100    0.0100    0.0100    0.0100    0.0100    0.0100    0.0100    0.0100
    0.0100    0.0100    0.0100    0.0100    0.0100    0.0100    0.0100    0.0100
    0.0100    0.0100    0.0100    0.0100    0.0100    0.0100    0.0100    0.0100
    0.0100    0.0100    0.0100    0.0100    0.0100    0.0100    0.0100    0.0100
    0.0100    0.0100    0.0100    0.0100    0.0100    0.0100    0.0100    0.0100
    0.0100    0.0100    0.0100    0.0100    0.0100    0.0100    0.0100    0.0100
    0.0100    0.0100    0.0100    0.0100    0.0100    0.0100    0.0100    0.0100
    0.0100    0.0100    0.0100    0.0100    0.0100    0.0100    0.0100    0.0100
    0.0100    0.0100    0.0100    0.0100    0.0100    0.0100    0.0100    0.0100
    0.0100    0.0100    0.0100    0.0100    0.0100    0.0100    0.0100    0.0100
    0.0100    0.0100    0.0100    0.0100    0.0100    0.0100    0.0100    0.0100
    0.0100    0.0100    0.0100    0.0100    0.0100    0.0100    0.0100    0.0100
    0.0100    0.0100    0.0100    0.0100    0.0100    0.0100    0.0100    0.0100
    0.0100    0.0100    0.0100    0.0100    0.0100    0.0100    0.0100    0.0100
    0.0100    0.0100    0.0100    0.0100    0.0100    0.0100    0.0100    0.0100
    0.0100    0.0100    0.0100    0.0100    0.0100    0.0100    0.0100    0.0100
    0.0100    0.0100    0.0100    0.0100    0.0100    0.0100    0.0100    0.0100
    0.0100    0.0100    0.0100    0.0100    0.0100    0.0100    0.0100    0.0100
   </PP_RAB>
 </PP_MESH>
  <PP_LOCAL type="real"  size=" 600" columns="4">
   -9.6813981126E+00   -9.6800902610E+00   -9.6761592601E+00   -9.6696124809E+00
   -9.6604572945E+00   -9.6487039838E+00   -9.6343657315E+00   -9.6174585936E+00
   -9.5980014664E+00   -9.5760160482E+00   -9.5515267960E+00   -9.5245608762E+00
   -9.4951481115E+00   -9.4633209233E+00   -9.4291142698E+00   -9.3925655805E+00
   -9.3537146870E+00   -9.3126037515E+00   -9.2692771915E+00   -9.2237816033E+00
   -9.1761656817E+00   -9.1264801400E+00   -9.0747776267E+00   -9.0211126416E+00
   -8.9655414505E+00   -8.9081220004E+00   -8.8489138311E+00   -8.7879779905E+00
   -8.7253769451E+00   -8.6611744934E+00   -8.5954356782E+00   -8.5282266987E+00
   -8.4596148216E+00   -8.3896682955E+00   -8.3184562617E+00   -8.2460486658E+00
   -8.1725161724E+00   -8.0979300758E+00   -8.0223622118E+00   -7.9458848726E+00
   -7.8685707170E+00   -7.7904926828E+00   -7.7117238995E+00   -7.6323375993E+00
   -7.5524070286E+00   -7.4720053590E+00   -7.3912055974E+00   -7.3100804959E+00
   -7.2287024634E+00   -7.1471434688E+00   -7.0654749519E+00   -6.9837677331E+00
   -6.9020919172E+00   -6.8205167895E+00   -6.7391107433E+00   -6.6579411508E+00
   -6.5770742960E+00   -6.4965752502E+00   -6.4165077940E+00   -6.3369342855E+00
   -6.2579156080E+00   -6.1795109858E+00   -6.1017779760E+00   -6.0247722772E+00
   -5.9485476493E+00   -5.8731558533E+00   -5.7986464546E+00   -5.7250667461E+00
   -5.6524616574E+00   -5.5808736655E+00   -5.5103425541E+00   -5.4409054062E+00
   -5.3725964630E+00   -5.3054469987E+00   -5.2394852228E+00   -5.1747361125E+00
   -5.1112212865E+00   -5.0489589325E+00   -4.9879636614E+00   -4.9282463834E+00
   -4.8698141838E+00   -4.8126701989E+00   -4.7568134915E+00   -4.7022389260E+00
   -4.6489370440E+00   -4.5968939391E+00   -4.5460911317E+00   -4.4965054438E+00
   -4.4481088728E+00   -4.4008684415E+00   -4.3547460176E+00   -4.3097001030E+00
   -4.2656890991E+00   -4.2226730563E+00   -4.1806135729E+00   -4.1394737188E+00
   -4.0992179461E+00   -4.0598121705E+00   -4.0212236216E+00   -3.9834208339E+00
   -3.9463736163E+00   -3.9100530201E+00   -3.8744312948E+00   -3.8394818352E+00
   -3.8051793115E+00   -3.7714994624E+00   -3.7384191242E+00   -3.7059161923E+00
   -3.6739695313E+00   -3.6425592041E+00   -3.6116661722E+00   -3.5812723465E+00
   -3.5513604711E+00   -3.5219143467E+00   -3.4929186124E+00   -3.4643587019E+00
   -3.4362207325E+00   -3.4084918253E+00   -3.3811597495E+00   -3.3542129059E+00
   -3.3276403931E+00   -3.3014320875E+00   -3.2755783702E+00   -3.2500700992E+00
   -3.2248989489E+00   -3.2000569815E+00   -3.1755366267E+00   -3.1513310539E+00
   -3.1274337517E+00   -3.1038384922E+00   -3.0805397176E+00   -3.0575320840E+00
   -3.0348105317E+00   -3.0123705360E+00   -2.9902077054E+00   -2.9683179798E+00
   -2.9466976512E+00   -2.9253430947E+00   -2.9042510733E+00   -2.8834184830E+00
   -2.8628423624E+00   -2.8425200432E+00   -2.8224488684E+00   -2.8026264190E+00
   -2.7830503359E+00   -2.7637183476E+00   -2.7446283009E+00   -2.7257780408E+00
   -2.7071655061E+00   -2.6887886179E+00   -2.6706453249E+00   -2.6527335427E+00
   -2.6350511914E+00   -2.6175960953E+00   -2.6003661097E+00   -2.5833589054E+00
   -2.5665722128E+00   -2.5500035322E+00   -2.5336504029E+00   -2.5175101510E+00
   -2.5015800901E+00   -2.4858573613E+00   -2.4703390447E+00   -2.4550220946E+00
   -2.4399033712E+00   -2.4249796503E+00   -2.4102476054E+00   -2.3957038538E+00
   -2.3813449289E+00   -2.3671673234E+00   -2.3531674859E+00   -2.3393418312E+00
   -2.3256867804E+00   -2.3121987299E+00   -2.2988741261E+00   -2.2857094169E+00
   -2.2727011173E+00   -2.2598458030E+00   -2.2471400890E+00   -2.2345807542E+00
   -2.2221645335E+00   -2.2098884764E+00   -2.1977494492E+00   -2.1857448064E+00
   -2.1738715972E+00   -2.1621274302E+00   -2.1505096544E+00   -2.1390160304E+00
   -2.1276442571E+00   -2.1163922120E+00   -2.1052579358E+00   -2.0942394060E+00
   -2.0833349507E+00   -2.0725426601E+00   -2.0618610224E+00   -2.0512883543E+00
   -2.0408231325E+00   -2.0304638545E+00   -2.0202090053E+00   -2.0100571264E+00
   -2.0000067310E+00   -1.9900563537E+00   -1.9802045001E+00   -1.9704497302E+00
   -1.9607906147E+00   -1.9512256979E+00   -1.9417536727E+00   -1.9323731361E+00
   -1.9230828055E+00   -1.9138813885E+00   -1.9047675828E+00   -1.8957401937E+00
   -1.8867979434E+00   -1.8779396691E+00   -1.8691641946E+00   -1.8604703271E+00
   -1.8518569858E+00   -1.8433230125E+00   -1.8348673362E+00   -1.8264889023E+00
   -1.8181866016E+00   -1.8099594602E+00   -1.8018064342E+00   -1.7937265183E+00
   -1.7857187694E+00   -1.7777821764E+00   -1.7699158287E+00   -1.7621188060E+00
   -1.7543901471E+00   -1.7467290103E+00   -1.7391344930E+00   -1.7316057138E+00
   -1.7241418607E+00   -1.7167420615E+00   -1.7094055073E+00   -1.7021314136E+00
   -1.6949189398E+00   -1.6877673413E+00   -1.6806758605E+00   -1.6736436894E+00
   -1.6666701392E+00   -1.6597544727E+00   -1.6528959346E+00   -1.6460938648E+00
   -1.6393475555E+00   -1.6326562979E+00   -1.6260194598E+00   -1.6194363629E+00
   -1.6129063392E+00   -1.6064287841E+00   -1.6000030486E+00   -1.5936285002E+00
   -1.5873045614E+00   -1.5810306129E+00   -1.5748060520E+00   -1.5686303284E+00
   -1.5625028528E+00   -1.5564230468E+00   -1.5503903877E+00   -1.5444043159E+00
   -1.5384642730E+00   -1.5325697635E+00   -1.5267202578E+00   -1.5209152129E+00
   -1.5151541608E+00   -1.5094366014E+00   -1.5037620040E+00   -1.4981299268E+00
   -1.4925398946E+00   -1.4869914018E+00   -1.4814840160E+00   -1.4760172894E+00
   -1.4705907465E+00   -1.4652039559E+00   -1.4598564990E+00   -1.4545479303E+00
   -1.4492778166E+00   -1.4440457676E+00   -1.4388513683E+00   -1.4336941812E+00
   -1.4285738431E+00   -1.4234899613E+00   -1.4184421185E+00   -1.4134299510E+00
   -1.4084530929E+00   -1.4035111576E+00   -1.3986037685E+00   -1.3937305890E+00
   -1.3888912620E+00   -1.3840854015E+00   -1.3793126935E+00   -1.3745727992E+00
   -1.3698653624E+00   -1.3651900502E+00   -1.3605465540E+00   -1.3559345490E+00
   -1.3513536819E+00   -1.3468036718E+00   -1.3422842094E+00   -1.3377949713E+00
   -1.3333356522E+00   -1.3289059733E+00   -1.3245056395E+00   -1.3201343311E+00
   -1.3157917859E+00   -1.3114777263E+00   -1.3071918638E+00   -1.3029339067E+00
   -1.2987036076E+00   -1.2945006983E+00   -1.2903248945E+00   -1.2861759396E+00
   -1.2820535897E+00   -1.2779575889E+00   -1.2738876589E+00   -1.2698435733E+00
   -1.2658250920E+00   -1.2618319682E+00   -1.2578639397E+00   -1.2539207967E+00
   -1.2500023067E+00   -1.2461082293E+00   -1.2422383258E+00   -1.2383923921E+00
   -1.2345702067E+00   -1.2307715364E+00   -1.2269961622E+00   -1.2232438865E+00
   -1.2195144981E+00   -1.2158077717E+00   -1.2121235048E+00   -1.2084615066E+00
   -1.2048215759E+00   -1.2012034961E+00   -1.1976070775E+00   -1.1940321372E+00
   -1.1904784831E+00   -1.1869459084E+00   -1.1834342328E+00   -1.1799432819E+00
   -1.1764728726E+00   -1.1730228082E+00   -1.1695929149E+00   -1.1661830276E+00
   -1.1627929717E+00   -1.1594225610E+00   -1.1560716257E+00   -1.1527400105E+00
   -1.1494275488E+00   -1.1461340658E+00   -1.1428593928E+00   -1.1396033848E+00
   -1.1363658831E+00   -1.1331467247E+00   -1.1299457397E+00   -1.1267627938E+00
   -1.1235977357E+00   -1.1204504141E+00   -1.1173206582E+00   -1.1142083423E+00
   -1.1111133228E+00   -1.1080354556E+00   -1.1049745826E+00   -1.1019305713E+00
   -1.0989032907E+00   -1.0958926035E+00   -1.0928983652E+00   -1.0899204342E+00
   -1.0869586926E+00   -1.0840130092E+00   -1.0810832530E+00   -1.0781692747E+00
   -1.0752709663E+00   -1.0723882036E+00   -1.0695208617E+00   -1.0666688057E+00
   -1.0638319141E+00   -1.0610100771E+00   -1.0582031755E+00   -1.0554110897E+00
   -1.0526336835E+00   -1.0498708608E+00   -1.0471225079E+00   -1.0443885114E+00
   -1.0416687489E+00   -1.0389631084E+00   -1.0362714910E+00   -1.0335937886E+00
   -1.0309298927E+00   -1.0282796800E+00   -1.0256430592E+00   -1.0230199294E+00
   -1.0204101873E+00   -1.0178137260E+00   -1.0152304334E+00   -1.0126602246E+00
   -1.0101030010E+00   -1.0075586642E+00   -1.0050271073E+00   -1.0025082340E+00
   -1.0000019590E+00   -9.9750818841E-01   -9.9502682833E-01   -9.9255777290E-01
   -9.9010093891E-01   -9.8765624134E-01   -9.8522359071E-01   -9.8280289753E-01
   -9.8039405796E-01   -9.7799699899E-01   -9.7561163685E-01   -9.7323788622E-01
   -9.7087566148E-01   -9.6852486258E-01   -9.6618542320E-01   -9.6385726201E-01
   -9.6154029764E-01   -9.5923444759E-01   -9.5693961797E-01   -9.5465574515E-01
   -9.5238275157E-01   -9.5012055968E-01   -9.4786909081E-01   -9.4562825507E-01
   -9.4339799215E-01   -9.4117822811E-01   -9.3896888900E-01   -9.3676990076E-01
   -9.3458117537E-01   -9.3240265650E-01   -9.3023427364E-01   -9.2807595632E-01
   -9.2592763402E-01   -9.2378922373E-01   -9.2166066865E-01   -9.1954190324E-01
   -9.1743286027E-01   -9.1533347255E-01   -9.1324366307E-01   -9.1116337230E-01
   -9.0909254038E-01   -9.0703110325E-01   -9.0497899681E-01   -9.0293615077E-01
   -9.0090250105E-01   -8.9887799406E-01   -8.9686256870E-01   -8.9485616389E-01
   -8.9285871662E-01   -8.9087015674E-01   -8.8889043730E-01   -8.8691950007E-01
   -8.8495728679E-01   -8.8300373921E-01   -8.8105878913E-01   -8.7912238721E-01
   -8.7719448099E-01   -8.7527501493E-01   -8.7336393350E-01   -8.7146117694E-01
   -8.6956668620E-01   -8.6768041688E-01   -8.6580231601E-01   -8.6393233066E-01
   -8.6207040787E-01   -8.6021648453E-01   -8.5837051763E-01   -8.5653245890E-01
   -8.5470225787E-01   -8.5287986405E-01   -8.5106522384E-01   -8.4925828142E-01
   -8.4745899768E-01   -8.4566732449E-01   -8.4388321371E-01   -8.4210661723E-01
   -8.4033747956E-01   -8.3857575669E-01   -8.3682140729E-01   -8.3507438550E-01
   -8.3333464542E-01   -8.3160214116E-01   -8.2987681638E-01   -8.2815863654E-01
   -8.2644755891E-01   -8.2474353974E-01   -8.2304653529E-01   -8.2135650020E-01
   -8.1967338296E-01   -8.1799715146E-01   -8.1632776400E-01   -8.1466517887E-01
   -8.1300935436E-01   -8.1136024545E-01   -8.0971780654E-01   -8.0808200559E-01
   -8.0645280286E-01   -8.0483015856E-01   -8.0321403293E-01   -8.0160438202E-01
   -8.0000116429E-01   -7.9840434845E-01   -7.9681389660E-01   -7.9522977082E-01
   -7.9365193320E-01   -7.9208034156E-01   -7.9051495661E-01   -7.8895574851E-01
   -7.8740268112E-01   -7.8585571829E-01   -7.8431482388E-01   -7.8277995813E-01
   -7.8125108233E-01   -7.7972816873E-01   -7.7821118288E-01   -7.7670009030E-01
   -7.7519485653E-01   -7.7369544490E-01   -7.7220181566E-01   -7.7071394377E-01
   -7.6923179637E-01   -7.6775534060E-01   -7.6628454360E-01   -7.6481937236E-01
   -7.6335978466E-01   -7.6190575870E-01   -7.6045726313E-01   -7.5901426663E-01
   -7.5757673789E-01   -7.5614464556E-01   -7.5471795124E-01   -7.5329662922E-01
   -7.5188065216E-01   -7.5046999018E-01   -7.4906461342E-01   -7.4766449202E-01
   -7.4626959241E-01   -7.4487988322E-01   -7.4349534168E-01   -7.4211593932E-01
   -7.4074164766E-01   -7.3937243824E-01   -7.3800828256E-01   -7.3664914345E-01
   -7.3529500204E-01   -7.3394583154E-01   -7.3260160478E-01   -7.3126229463E-01
   -7.2992787394E-01   -7.2859831144E-01   -7.2727357980E-01   -7.2595365798E-01
   -7.2463852010E-01   -7.2332814029E-01   -7.2202249265E-01   -7.2072155130E-01
   -7.1942528277E-01   -7.1813366870E-01   -7.1684668550E-01   -7.1556430850E-01
   -7.1428651303E-01   -7.1301327440E-01   -7.1174456609E-01   -7.1048035883E-01
   -7.0922063575E-01   -7.0796537333E-01   -7.0671454802E-01   -7.0546813632E-01
   -7.0422611469E-01   -7.0298845564E-01   -7.0175513570E-01   -7.0052613683E-01
   -6.9930143661E-01   -6.9808101260E-01   -6.9686484237E-01   -6.9565290349E-01
   -6.9444516824E-01   -6.9324161727E-01   -6.9204223205E-01   -6.9084699120E-01
   -6.8965587333E-01   -6.8846885706E-01   -6.8728592100E-01   -6.8610703785E-01
   -6.8493219083E-01   -6.8376136157E-01   -6.8259452969E-01   -6.8143167479E-01
   -6.8027277649E-01   -6.7911781441E-01   -6.7796676226E-01   -6.7681960435E-01
   -6.7567632314E-01   -6.7453689917E-01   -6.7340131300E-01   -6.7226954520E-01
   -6.7114157634E-01   -6.7001738174E-01   -6.6889694541E-01   -6.6778025120E-01
  </PP_LOCAL>
 <PP_NONLOCAL>
   <PP_BETA.1
       type="real"
       size=" 600"
       columns="4"
       index="1"
       angular_momentum="0"
       cutoff_radius_index=" 204"
       cutoff_radius="    2.0300000000E+00" >
    0.0000000000E+00    6.0834195882E-02    1.2158413341E-01    1.8216550702E-01
    2.4249391866E-01    3.0248483611E-01    3.6205355689E-01    4.2111517941E-01
    4.7958458306E-01    5.3737641887E-01    5.9440511226E-01    6.5058487922E-01
    7.0582975724E-01    7.6005365207E-01    8.1317040137E-01    8.6509385591E-01
    9.1573797920E-01    9.6501696572E-01    1.0128453783E+00    1.0591383047E+00
    1.1038115327E+00    1.1467817450E+00    1.1879667312E+00    1.2272856177E+00
    1.2646591147E+00    1.3000097786E+00    1.3332622876E+00    1.3643437327E+00
    1.3931839174E+00    1.4197156685E+00    1.4438751541E+00    1.4656022080E+00
    1.4848406551E+00    1.5015386423E+00    1.5156489662E+00    1.5271293923E+00
    1.5359429811E+00    1.5420583929E+00    1.5454501828E+00    1.5460990970E+00
    1.5439923349E+00    1.5391238014E+00    1.5314943386E+00    1.5211119338E+00
    1.5079919024E+00    1.4921570438E+00    1.4736377670E+00    1.4524721871E+00
    1.4287061804E+00    1.4023934339E+00    1.3735954209E+00    1.3423813582E+00
    1.3088281346E+00    1.2730201971E+00    1.2350493767E+00    1.1950147179E+00
    1.1530222277E+00    1.1091846160E+00    1.0636209852E+00    1.0164564783E+00
    9.6782192769E-01    9.1785338179E-01    8.6669174255E-01    8.1448220667E-01
    7.6137378088E-01    7.0751881856E-01    6.5307234268E-01    5.9819150571E-01
    5.4303502471E-01    4.8776261416E-01    4.3253412765E-01    3.7750910003E-01
    3.2284605204E-01    2.6870181734E-01    2.1523091778E-01    1.6258480426E-01
    1.1091117686E-01    6.0353423881E-02    1.1049921264E-02   -3.6866613364E-02
   -8.3269754045E-02   -1.2803998501E-01   -1.7106530217E-01   -2.1224179567E-01
   -2.5147421164E-01   -2.8867649178E-01   -3.2377228919E-01   -3.5669545954E-01
   -3.8739052653E-01   -4.1581312661E-01   -4.4193043976E-01   -4.6572110217E-01
   -4.8717452841E-01   -5.0629030390E-01   -5.2307789267E-01   -5.3755630994E-01
   -5.4975364419E-01   -5.5970702406E-01   -5.6746182585E-01   -5.7307131334E-01
   -5.7659616588E-01   -5.7810397485E-01   -5.7766872298E-01   -5.7537030311E-01
   -5.7129390164E-01   -5.6552938667E-01   -5.5817077744E-01   -5.4931570109E-01
   -5.3906506011E-01   -5.2752170447E-01   -5.1479046864E-01   -5.0097747650E-01
   -4.8619008938E-01   -4.7053511927E-01   -4.5411900109E-01   -4.3704746733E-01
   -4.1942584675E-01   -4.0135593292E-01   -3.8293771980E-01   -3.6426917175E-01
   -3.4544509234E-01   -3.2655532880E-01   -3.0768691767E-01   -2.8892421518E-01
   -2.7034395900E-01   -2.5201976690E-01   -2.3402238204E-01   -2.1641372258E-01
   -1.9925217135E-01   -1.8259315244E-01   -1.6648232569E-01   -1.5096242995E-01
   -1.3607210433E-01   -1.2184089755E-01   -1.0829613127E-01   -9.5459140999E-02
   -8.3344425483E-02   -7.1964681611E-02   -6.1324628208E-02   -5.1425777428E-02
   -4.2266202535E-02   -3.3837195113E-02   -2.6129019871E-02   -1.9126010757E-02
   -1.2810206708E-02   -7.1607414270E-03   -2.1528963013E-03    2.2390657229E-03
    6.0444897272E-03    9.2935283447E-03    1.2018487278E-02    1.4252468144E-02
    1.6030011468E-02    1.7385447703E-02    1.8354802568E-02    1.8972229530E-02