<UPF version="2.0.1">
  <PP_INFO>

 This pseudopotential file has been produced using the code
 ONCVPSP  (Optimized Norm-Conservinng Vanderbilt PSeudopotential)
 scalar-relativistic version 3.0.0 10/10/2014 by D. R. Hamann
 The code is available through a link at URL www.mat-simresearch.com.
 Documentation with the package provides a full discription of the
 input data below.


 While it is not required under the terms of the GNU GPL, it is
 suggested that you cite D. R. Hamann, Phys. Rev. B 88, 085117 (2013)
 in any publication using these pseudopotentials.

    <PP_INPUTFILE>
# ATOM AND REFERENCE CONFIGURATION
# atsym  z   nc   nv     iexc    psfile
  Mo 42.00    6    4 -116133      upf
#
#   n    l    f        energy (Ha)
    1    0    2.00
    2    0    2.00
    2    1    6.00
    3    0    2.00
    3    1    6.00
    3    2   10.00
    4    0    2.00
    4    1    6.00
    5    0    2.00
    4    2    4.00
#
# PSEUDOPOTENTIAL AND OPTIMIZATION
# lmax
    2
#
#   l,   rc,     ep,   ncon, nbas, qcut
    0    2.32   -2.46    5    8    6.14
    1    2.52   -1.51    5    8    5.90
    2    2.58   -0.21    5    8    5.74
#
# LOCAL POTENTIAL
# lloc, lpopt,  rc(5),   dvloc0
    4    5      1.54       0.00
#
# VANDERBILT-KLEINMAN-BYLANDER PROJECTORs
# l, nproj, debl
    0    2    2.2832
    1    2    1.5589
    2    2    1.3673
#
# MODEL CORE CHARGE
# icmod, fcfact
    0    0.00
#
# LOG DERIVATIVE ANALYSIS
# epsh1, epsh2, depsh
   -5.00    3.00    0.02
#
# OUTPUT GRID
# rlmax, drl
    6.00    0.01
#
# TEST CONFIGURATIONS
# ncnf
    0
# nvcnf
#   n    l    f
    </PP_INPUTFILE>
  </PP_INFO>
  <!--                               -->
  <!-- END OF HUMAN READABLE SECTION -->
  <!--                               -->
    <PP_HEADER
       generated="Generated using ONCVPSP code by D. R. Hamann"
       author="anonymous"
       date="150603"
       comment=""
       element="Mo"
       pseudo_type="NC"
       relativistic="scalar"
       is_ultrasoft="F"
       is_paw="F"
       is_coulomb="F"
       has_so="F"
       has_wfc="F"
       has_gipaw="F"
       core_correction="F"
       functional="PBESOL"
       z_valence="   14.00"
       total_psenergy="  -6.81398859214E+01"
       rho_cutoff="   5.99000000000E+00"
       l_max="2"
       l_local="-1"
       mesh_size="   600"
       number_of_wfc="0"
       number_of_proj="6"/>
 <PP_MESH>
   <PP_R type="real"  size=" 600" columns="8">
    0.0000    0.0100    0.0200    0.0300    0.0400    0.0500    0.0600    0.0700
    0.0800    0.0900    0.1000    0.1100    0.1200    0.1300    0.1400    0.1500
    0.1600    0.1700    0.1800    0.1900    0.2000    0.2100    0.2200    0.2300
    0.2400    0.2500    0.2600    0.2700    0.2800    0.2900    0.3000    0.3100
    0.3200    0.3300    0.3400    0.3500    0.3600    0.3700    0.3800    0.3900
    0.4000    0.4100    0.4200    0.4300    0.4400    0.4500    0.4600    0.4700
    0.4800    0.4900    0.5000    0.5100    0.5200    0.5300    0.5400    0.5500
    0.5600    0.5700    0.5800    0.5900    0.6000    0.6100    0.6200    0.6300
    0.6400    0.6500    0.6600    0.6700    0.6800    0.6900    0.7000    0.7100
    0.7200    0.7300    0.7400    0.7500    0.7600    0.7700    0.7800    0.7900
    0.8000    0.8100    0.8200    0.8300    0.8400    0.8500    0.8600    0.8700
    0.8800    0.8900    0.9000    0.9100    0.9200    0.9300    0.9400    0.9500
    0.9600    0.9700    0.9800    0.9900    1.0000    1.0100    1.0200    1.0300
    1.0400    1.0500    1.0600    1.0700    1.0800    1.0900    1.1000    1.1100
    1.1200    1.1300    1.1400    1.1500    1.1600    1.1700    1.1800    1.1900
    1.2000    1.2100    1.2200    1.2300    1.2400    1.2500    1.2600    1.2700
    1.2800    1.2900    1.3000    1.3100    1.3200    1.3300    1.3400    1.3500
    1.3600    1.3700    1.3800    1.3900    1.4000    1.4100    1.4200    1.4300
    1.4400    1.4500    1.4600    1.4700    1.4800    1.4900    1.5000    1.5100
    1.5200    1.5300    1.5400    1.5500    1.5600    1.5700    1.5800    1.5900
    1.6000    1.6100    1.6200    1.6300    1.6400    1.6500    1.6600    1.6700
    1.6800    1.6900    1.7000    1.7100    1.7200    1.7300    1.7400    1.7500
    1.7600    1.7700    1.7800    1.7900    1.8000    1.8100    1.8200    1.8300
    1.8400    1.8500    1.8600    1.8700    1.8800    1.8900    1.9000    1.9100
    1.9200    1.9300    1.9400    1.9500    1.9600    1.9700    1.9800    1.9900
    2.0000    2.0100    2.0200    2.0300    2.0400    2.0500    2.0600    2.0700
    2.0800    2.0900    2.1000    2.1100    2.1200    2.1300    2.1400    2.1500
    2.1600    2.1700    2.1800    2.1900    2.2000    2.2100    2.2200    2.2300
    2.2400    2.2500    2.2600    2.2700    2.2800    2.2900    2.3000    2.3100
    2.3200    2.3300    2.3400    2.3500    2.3600    2.3700    2.3800    2.3900
    2.4000    2.4100    2.4200    2.4300    2.4400    2.4500    2.4600    2.4700
    2.4800    2.4900    2.5000    2.5100    2.5200    2.5300    2.5400    2.5500
    2.5600    2.5700    2.5800    2.5900    2.6000    2.6100    2.6200    2.6300
    2.6400    2.6500    2.6600    2.6700    2.6800    2.6900    2.7000    2.7100
    2.7200    2.7300    2.7400    2.7500    2.7600    2.7700    2.7800    2.7900
    2.8000    2.8100    2.8200    2.8300    2.8400    2.8500    2.8600    2.8700
    2.8800    2.8900    2.9000    2.9100    2.9200    2.9300    2.9400    2.9500
    2.9600    2.9700    2.9800    2.9900    3.0000    3.0100    3.0200    3.0300
    3.0400    3.0500    3.0600    3.0700    3.0800    3.0900    3.1000    3.1100
    3.1200    3.1300    3.1400    3.1500    3.1600    3.1700    3.1800    3.1900
    3.2000    3.2100    3.2200    3.2300    3.2400    3.2500    3.2600    3.2700
    3.2800    3.2900    3.3000    3.3100    3.3200    3.3300    3.3400    3.3500
    3.3600    3.3700    3.3800    3.3900    3.4000    3.4100    3.4200    3.4300
    3.4400    3.4500    3.4600    3.4700    3.4800    3.4900    3.5000    3.5100
    3.5200    3.5300    3.5400    3.5500    3.5600    3.5700    3.5800    3.5900
    3.6000    3.6100    3.6200    3.6300    3.6400    3.6500    3.6600    3.6700
    3.6800    3.6900    3.7000    3.7100    3.7200    3.7300    3.7400    3.7500
    3.7600    3.7700    3.7800    3.7900    3.8000    3.8100    3.8200    3.8300
    3.8400    3.8500    3.8600    3.8700    3.8800    3.8900    3.9000    3.9100
    3.9200    3.9300    3.9400    3.9500    3.9600    3.9700    3.9800    3.9900
    4.0000    4.0100    4.0200    4.0300    4.0400    4.0500    4.0600    4.0700
    4.0800    4.0900    4.1000    4.1100    4.1200    4.1300    4.1400    4.1500
    4.1600    4.1700    4.1800    4.1900    4.2000    4.2100    4.2200    4.2300
    4.2400    4.2500    4.2600    4.2700    4.2800    4.2900    4.3000    4.3100
    4.3200    4.3300    4.3400    4.3500    4.3600    4.3700    4.3800    4.3900
    4.4000    4.4100    4.4200    4.4300    4.4400    4.4500    4.4600    4.4700
    4.4800    4.4900    4.5000    4.5100    4.5200    4.5300    4.5400    4.5500
    4.5600    4.5700    4.5800    4.5900    4.6000    4.6100    4.6200    4.6300
    4.6400    4.6500    4.6600    4.6700    4.6800    4.6900    4.7000    4.7100
    4.7200    4.7300    4.7400    4.7500    4.7600    4.7700    4.7800    4.7900
    4.8000    4.8100    4.8200    4.8300    4.8400    4.8500    4.8600    4.8700
    4.8800    4.8900    4.9000    4.9100    4.9200    4.9300    4.9400    4.9500
    4.9600    4.9700    4.9800    4.9900    5.0000    5.0100    5.0200    5.0300
    5.0400    5.0500    5.0600    5.0700    5.0800    5.0900    5.1000    5.1100
    5.1200    5.1300    5.1400    5.1500    5.1600    5.1700    5.1800    5.1900
    5.2000    5.2100    5.2200    5.2300    5.2400    5.2500    5.2600    5.2700
    5.2800    5.2900    5.3000    5.3100    5.3200    5.3300    5.3400    5.3500
    5.3600    5.3700    5.3800    5.3900    5.4000    5.4100    5.4200    5.4300
    5.4400    5.4500    5.4600    5.4700    5.4800    5.4900    5.5000    5.5100
    5.5200    5.5300    5.5400    5.5500    5.5600    5.5700    5.5800    5.5900
    5.6000    5.6100    5.6200    5.6300    5.6400    5.6500    5.6600    5.6700
    5.6800    5.6900    5.7000    5.7100    5.7200    5.7300    5.7400    5.7500
    5.7600    5.7700    5.7800    5.7900    5.8000    5.8100    5.8200    5.8300
    5.8400    5.8500    5.8600    5.8700    5.8800    5.8900    5.9000    5.9100
    5.9200    5.9300    5.9400    5.9500    5.9600    5.9700    5.9800    5.9900
   </PP_R>
   <PP_RAB type="real"  size=" 600" columns="8">
    0.0100    0.0100    0.0100    0.0100    0.0100    0.0100    0.0100    0.0100
    0.0100    0.0100    0.0100    0.0100    0.0100    0.0100    0.0100    0.0100
    0.0100    0.0100    0.0100    0.0100    0.0100    0.0100    0.0100    0.0100
    0.0100    0.0100    0.0100    0.0100    0.0100    0.0100    0.0100    0.0100
    0.0100    0.0100    0.0100    0.0100    0.0100    0.0100    0.0100    0.0100
    0.0100    0.0100    0.0100    0.0100    0.0100    0.0100    0.0100    0.0100
    0.0100    0.0100    0.0100    0.0100    0.0100    0.0100    0.0100    0.0100
    0.0100    0.0100    0.0100    0.0100    0.0100    0.0100    0.0100    0.0100
    0.0100    0.0100    0.0100    0.0100    0.0100    0.0100    0.0100    0.0100
    0.0100    0.0100    0.0100    0.0100    0.0100    0.0100    0.0100    0.0100
    0.0100    0.0100    0.0100    0.0100    0.0100    0.0100    0.0100    0.0100
    0.0100    0.0100    0.0100    0.0100    0.0100    0.0100    0.0100    0.0100
    0.0100    0.0100    0.0100    0.0100    0.0100    0.0100    0.0100    0.0100
    0.0100    0.0100    0.0100    0.0100    0.0100    0.0100    0.0100    0.0100
    0.0100    0.0100    0.0100    0.0100    0.0100    0.0100    0.0100    0.0100
    0.0100    0.0100    0.0100    0.0100    0.0100    0.0100    0.0100    0.0100
    0.0100    0.0100    0.0100    0.0100    0.0100    0.0100    0.0100    0.0100
    0.0100    0.0100    0.0100    0.0100    0.0100    0.0100    0.0100    0.0100
    0.0100    0.0100    0.0100    0.0100    0.0100    0.0100    0.0100    0.0100
    0.0100    0.0100    0.0100    0.0100    0.0100    0.0100    0.0100    0.0100
    0.0100    0.0100    0.0100    0.0100    0.0100    0.0100    0.0100    0.0100
    0.0100    0.0100    0.0100    0.0100    0.0100    0.0100    0.0100    0.0100
    0.0100    0.0100    0.0100    0.0100    0.0100    0.0100    0.0100    0.0100
    0.0100    0.0100    0.0100    0.0100    0.0100    0.0100    0.0100    0.0100
    0.0100    0.0100    0.0100    0.0100    0.0100    0.0100    0.0100    0.0100
    0.0100    0.0100    0.0100    0.0100    0.0100    0.0100    0.0100    0.0100
    0.0100    0.0100    0.0100    0.0100    0.0100    0.0100    0.0100    0.0100
    0.0100    0.0100    0.0100    0.0100    0.0100    0.0100    0.0100    0.0100
    0.0100    0.0100    0.0100    0.0100    0.0100    0.0100    0.0100    0.0100
    0.0100    0.0100    0.0100    0.0100    0.0100    0.0100    0.0100    0.0100
    0.0100    0.0100    0.0100    0.0100    0.0100    0.0100    0.0100    0.0100
    0.0100    0.0100    0.0100    0.0100    0.0100    0.0100    0.0100    0.0100
    0.0100    0.0100    0.0100    0.0100    0.0100    0.0100    0.0100    0.0100
    0.0100    0.0100    0.0100    0.0100    0.0100    0.0100    0.0100    0.0100
    0.0100    0.0100    0.0100    0.0100    0.0100    0.0100    0.0100    0.0100
    0.0100    0.0100    0.0100    0.0100    0.0100    0.0100    0.0100    0.0100
    0.0100    0.0100    0.0100    0.0100    0.0100    0.0100    0.0100    0.0100
    0.0100    0.0100    0.0100    0.0100    0.0100    0.0100    0.0100    0.0100
    0.0100    0.0100    0.0100    0.0100    0.0100    0.0100    0.0100    0.0100
    0.0100    0.0100    0.0100    0.0100    0.0100    0.0100    0.0100    0.0100
    0.0100    0.0100    0.0100    0.0100    0.0100    0.0100    0.0100    0.0100
    0.0100    0.0100    0.0100    0.0100    0.0100    0.0100    0.0100    0.0100
    0.0100    0.0100    0.0100    0.0100    0.0100    0.0100    0.0100    0.0100
    0.0100    0.0100    0.0100    0.0100    0.0100    0.0100    0.0100    0.0100
    0.0100    0.0100    0.0100    0.0100    0.0100    0.0100    0.0100    0.0100
    0.0100    0.0100    0.0100    0.0100    0.0100    0.0100    0.0100    0.0100
    0.0100    0.0100    0.0100    0.0100    0.0100    0.0100    0.0100    0.0100
    0.0100    0.0100    0.0100    0.0100    0.0100    0.0100    0.0100    0.0100
    0.0100    0.0100    0.0100    0.0100    0.0100    0.0100    0.0100    0.0100
    0.0100    0.0100    0.0100    0.0100    0.0100    0.0100    0.0100    0.0100
    0.0100    0.0100    0.0100    0.0100    0.0100    0.0100    0.0100    0.0100
    0.0100    0.0100    0.0100    0.0100    0.0100    0.0100    0.0100    0.0100
    0.0100    0.0100    0.0100    0.0100    0.0100    0.0100    0.0100    0.0100
    0.0100    0.0100    0.0100    0.0100    0.0100    0.0100    0.0100    0.0100
    0.0100    0.0100    0.0100    0.0100    0.0100    0.0100    0.0100    0.0100
    0.0100    0.0100    0.0100    0.0100    0.0100    0.0100    0.0100    0.0100
    0.0100    0.0100    0.0100    0.0100    0.0100    0.0100    0.0100    0.0100
    0.0100    0.0100    0.0100    0.0100    0.0100    0.0100    0.0100    0.0100
    0.0100    0.0100    0.0100    0.0100    0.0100    0.0100    0.0100    0.0100
    0.0100    0.0100    0.0100    0.0100    0.0100    0.0100    0.0100    0.0100
    0.0100    0.0100    0.0100    0.0100    0.0100    0.0100    0.0100    0.0100
    0.0100    0.0100    0.0100    0.0100    0.0100    0.0100    0.0100    0.0100
    0.0100    0.0100    0.0100    0.0100    0.0100    0.0100    0.0100    0.0100
    0.0100    0.0100    0.0100    0.0100    0.0100    0.0100    0.0100    0.0100
    0.0100    0.0100    0.0100    0.0100    0.0100    0.0100    0.0100    0.0100
    0.0100    0.0100    0.0100    0.0100    0.0100    0.0100    0.0100    0.0100
    0.0100    0.0100    0.0100    0.0100    0.0100    0.0100    0.0100    0.0100
    0.0100    0.0100    0.0100    0.0100    0.0100    0.0100    0.0100    0.0100
    0.0100    0.0100    0.0100    0.0100    0.0100    0.0100    0.0100    0.0100
    0.0100    0.0100    0.0100    0.0100    0.0100    0.0100    0.0100    0.0100
    0.0100    0.0100    0.0100    0.0100    0.0100    0.0100    0.0100    0.0100
    0.0100    0.0100    0.0100    0.0100    0.0100    0.0100    0.0100    0.0100
    0.0100    0.0100    0.0100    0.0100    0.0100    0.0100    0.0100    0.0100
    0.0100    0.0100    0.0100    0.0100    0.0100    0.0100    0.0100    0.0100
    0.0100    0.0100    0.0100    0.0100    0.0100    0.0100    0.0100    0.0100
   </PP_RAB>
 </PP_MESH>
  <PP_LOCAL type="real"  size=" 600" columns="4">
   -3.9646397249E+01   -3.9645692942E+01   -3.9643832217E+01   -3.9640509459E+01
   -3.9635419053E+01   -3.9628181362E+01   -3.9618380612E+01   -3.9605601824E+01
   -3.9589462171E+01   -3.9569633910E+01   -3.9545857972E+01   -3.9517948867E+01
   -3.9485792580E+01   -3.9449339557E+01   -3.9408594844E+01   -3.9363607097E+01
   -3.9314457764E+01   -3.9261251231E+01   -3.9204106406E+01   -3.9143149864E+01
   -3.9078510522E+01   -3.9010315695E+01   -3.8938688304E+01   -3.8863745043E+01
   -3.8785595272E+01   -3.8704340473E+01   -3.8620074102E+01   -3.8532881735E+01
   -3.8442841398E+01   -3.8350024014E+01   -3.8254493922E+01   -3.8156309424E+01
   -3.8055523344E+01   -3.7952183576E+01   -3.7846333594E+01   -3.7738012970E+01
   -3.7627257825E+01   -3.7514101281E+01   -3.7398573860E+01   -3.7280703862E+01
   -3.7160517723E+01   -3.7038040335E+01   -3.6913295349E+01   -3.6786305453E+01
   -3.6657092630E+01   -3.6525678400E+01   -3.6392084036E+01   -3.6256330773E+01
   -3.6118439991E+01   -3.5978433391E+01   -3.5836333158E+01   -3.5692162098E+01
   -3.5545943771E+01   -3.5397702616E+01   -3.5247464055E+01   -3.5095254574E+01
   -3.4941101841E+01   -3.4785034721E+01   -3.4627083405E+01   -3.4467279393E+01
   -3.4305655586E+01   -3.4142246289E+01   -3.3977087217E+01   -3.3810215564E+01
   -3.3641669931E+01   -3.3471490364E+01   -3.3299718358E+01   -3.3126396793E+01
   -3.2951569909E+01   -3.2775283332E+01   -3.2597583983E+01   -3.2418520048E+01
   -3.2238140933E+01   -3.2056497201E+01   -3.1873640568E+01   -3.1689623797E+01
   -3.1504500654E+01   -3.1318325851E+01   -3.1131154986E+01   -3.0943044477E+01
   -3.0754051502E+01   -3.0564233934E+01   -3.0373650277E+01   -3.0182359604E+01
   -2.9990421490E+01   -2.9797895953E+01   -2.9604843386E+01   -2.9411324499E+01
   -2.9217400256E+01   -2.9023131812E+01   -2.8828580456E+01   -2.8633807549E+01
   -2.8438874466E+01   -2.8243842540E+01   -2.8048773002E+01   -2.7853726928E+01
   -2.7658765182E+01   -2.7463948360E+01   -2.7269336758E+01   -2.7074990268E+01
   -2.6880968367E+01   -2.6687330054E+01   -2.6494133798E+01   -2.6301437490E+01
   -2.6109298446E+01   -2.5917773212E+01   -2.5726917637E+01   -2.5536786792E+01
   -2.5347434935E+01   -2.5158915550E+01   -2.4971281009E+01   -2.4784582796E+01
   -2.4598871391E+01   -2.4414196361E+01   -2.4230605932E+01   -2.4048147229E+01
   -2.3866866242E+01   -2.3686807925E+01   -2.3508015521E+01   -2.3330531134E+01
   -2.3154395715E+01   -2.2979648578E+01   -2.2806327452E+01   -2.2634468859E+01
   -2.2464107823E+01   -2.2295277308E+01   -2.2128009081E+01   -2.1962333416E+01
   -2.1798278173E+01   -2.1635870078E+01   -2.1475134153E+01   -2.1316092844E+01
   -2.1158767608E+01   -2.1003177639E+01   -2.0849339720E+01   -2.0697269862E+01
   -2.0546980765E+01   -2.0398483571E+01   -2.0251788132E+01   -2.0106900497E+01
   -1.9963826281E+01   -1.9822567830E+01   -1.9683125245E+01   -1.9545497730E+01
   -1.9409679889E+01   -1.9275666477E+01   -1.9143447930E+01   -1.9013013258E+01
   -1.8884349381E+01   -1.8757439160E+01   -1.8632265884E+01   -1.8508806596E+01
   -1.8387039571E+01   -1.8266937286E+01   -1.8148472067E+01   -1.8031611779E+01
   -1.7916324343E+01   -1.7802576070E+01   -1.7690334948E+01   -1.7579568881E+01
   -1.7470247438E+01   -1.7362339756E+01   -1.7255816943E+01   -1.7150649314E+01
   -1.7046809411E+01   -1.6944268782E+01   -1.6843001268E+01   -1.6742979695E+01
   -1.6644179125E+01   -1.6546573618E+01   -1.6450139469E+01   -1.6354851903E+01
   -1.6260688455E+01   -1.6167625445E+01   -1.6075641611E+01   -1.5984714441E+01
   -1.5894823710E+01   -1.5805948139E+01   -1.5718068435E+01   -1.5631164576E+01
   -1.5545218111E+01   -1.5460210299E+01   -1.5376123435E+01   -1.5292940079E+01
   -1.5210643183E+01   -1.5129216619E+01   -1.5048643919E+01   -1.4968910262E+01
   -1.4889999706E+01   -1.4811898534E+01   -1.4734591825E+01   -1.4658066357E+01
   -1.4582308508E+01   -1.4507305371E+01   -1.4433044676E+01   -1.4359513762E+01
   -1.4286701608E+01   -1.4214596039E+01   -1.4143186769E+01   -1.4072462783E+01
   -1.4002413869E+01   -1.3933030379E+01   -1.3864302119E+01   -1.3796220553E+01
   -1.3728776105E+01   -1.3661960530E+01   -1.3595765445E+01   -1.3530182468E+01
   -1.3465204326E+01   -1.3400822872E+01   -1.3337031250E+01   -1.3273822271E+01
   -1.3211188845E+01   -1.3149124684E+01   -1.3087622854E+01   -1.3026677311E+01
   -1.2966281845E+01   -1.2906430180E+01   -1.2847116658E+01   -1.2788335228E+01
   -1.2730080220E+01   -1.2672346037E+01   -1.2615126885E+01   -1.2558417373E+01
   -1.2502211938E+01   -1.2446505065E+01   -1.2391291362E+01   -1.2336565350E+01
   -1.2282321627E+01   -1.2228554797E+01   -1.2175259444E+01   -1.2122430173E+01
   -1.2070061582E+01   -1.2018148273E+01   -1.1966684818E+01   -1.1915665791E+01
   -1.1865085782E+01   -1.1814939394E+01   -1.1765221182E+01   -1.1715925794E+01
   -1.1667047899E+01   -1.1618582065E+01   -1.1570523059E+01   -1.1522865626E+01
   -1.1475604345E+01   -1.1428734189E+01   -1.1382250021E+01   -1.1336146464E+01
   -1.1290418781E+01   -1.1245061987E+01   -1.1200070845E+01   -1.1155440927E+01
   -1.1111167478E+01   -1.1067245438E+01   -1.1023670761E+01   -1.0980438999E+01
   -1.0937545305E+01   -1.0894986051E+01   -1.0852757153E+01   -1.0810854066E+01
   -1.0769273482E+01   -1.0728011657E+01   -1.0687064527E+01   -1.0646428814E+01
   -1.0606101043E+01   -1.0566077516E+01   -1.0526354949E+01   -1.0486930040E+01
   -1.0447799281E+01   -1.0408959436E+01   -1.0370407398E+01   -1.0332139858E+01
   -1.0294153598E+01   -1.0256445720E+01   -1.0219013137E+01   -1.0181852635E+01
   -1.0144961501E+01   -1.0108336819E+01   -1.0071975480E+01   -1.0035874834E+01
   -1.0000032141E+01   -9.9644445007E+00   -9.9291092035E+00   -9.8940237143E+00
   -9.8591853477E+00   -9.8245913169E+00   -9.7902392828E+00   -9.7561267184E+00
   -9.7222509336E+00   -9.6886095911E+00   -9.6552003410E+00   -9.6220207083E+00
   -9.5890682292E+00   -9.5563407585E+00   -9.5238359994E+00   -9.4915514868E+00
   -9.4594851340E+00   -9.4276347937E+00   -9.3959982171E+00   -9.3645731513E+00
   -9.3333576568E+00   -9.3023496458E+00   -9.2715468885E+00   -9.2409474441E+00
   -9.2105493837E+00   -9.1803506991E+00   -9.1503492496E+00   -9.1205433119E+00
   -9.0909309880E+00   -9.0615102957E+00   -9.0322793469E+00   -9.0032364434E+00
   -8.9743797757E+00   -8.9457073982E+00   -8.9172176443E+00   -8.8889088422E+00
   -8.8607792667E+00   -8.8328270186E+00   -8.8050506202E+00   -8.7774484308E+00
   -8.7500187714E+00   -8.7227599005E+00   -8.6956703943E+00   -8.6687486845E+00
   -8.6419931405E+00   -8.6154021663E+00   -8.5889743816E+00   -8.5627082915E+00
   -8.5366023196E+00   -8.5106549904E+00   -8.4848649715E+00   -8.4592308375E+00
   -8.4337510723E+00   -8.4084242963E+00   -8.3832492298E+00   -8.3582245141E+00
   -8.3333486977E+00   -8.3086204743E+00   -8.2840386222E+00   -8.2596018458E+00
   -8.2353087633E+00   -8.2111581199E+00   -8.1871487567E+00   -8.1632794385E+00
   -8.1395488571E+00   -8.1159557897E+00   -8.0924991443E+00   -8.0691777433E+00
   -8.0459903565E+00   -8.0229357743E+00   -8.0000129757E+00   -7.9772208378E+00
   -7.9545582128E+00   -7.9320238872E+00   -7.9096169138E+00   -7.8873362220E+00
   -7.8651807413E+00   -7.8431492667E+00   -7.8212408993E+00   -7.7994546274E+00
   -7.7777894303E+00   -7.7562441919E+00   -7.7348179697E+00   -7.7135098389E+00
   -7.6923188265E+00   -7.6712439105E+00   -7.6502840900E+00   -7.6294385288E+00
   -7.6087062991E+00   -7.5880864731E+00   -7.5675779943E+00   -7.5471801004E+00
   -7.5268919113E+00   -7.5067125427E+00   -7.4866410373E+00   -7.4666765427E+00
   -7.4468182776E+00   -7.4270653989E+00   -7.4074170553E+00   -7.3878722933E+00
   -7.3684304286E+00   -7.3490906571E+00   -7.3298521747E+00   -7.3107141104E+00
   -7.2916756850E+00   -7.2727361931E+00   -7.2538948681E+00   -7.2351509437E+00
   -7.2165035392E+00   -7.1979520264E+00   -7.1794956827E+00   -7.1611337774E+00
   -7.1428655440E+00   -7.1246902105E+00   -7.1066071662E+00   -7.0886157142E+00
   -7.0707151578E+00   -7.0529047300E+00   -7.0351837733E+00   -7.0175516727E+00
   -7.0000077640E+00   -6.9825513829E+00   -6.9651817696E+00   -6.9478983604E+00
   -6.9307005419E+00   -6.9135876808E+00   -6.8965591417E+00   -6.8796141846E+00
   -6.8627523143E+00   -6.8459729268E+00   -6.8292754183E+00   -6.8126591687E+00
   -6.7961235007E+00   -6.7796679318E+00   -6.7632918864E+00   -6.7469947887E+00
   -6.7307760393E+00   -6.7146350075E+00   -6.6985712282E+00   -6.6825841527E+00
   -6.6666732320E+00   -6.6508378932E+00   -6.6350775356E+00   -6.6193917169E+00
   -6.6037799140E+00   -6.5882416035E+00   -6.5727762436E+00   -6.5573832493E+00
   -6.5420622056E+00   -6.5268126137E+00   -6.5116339745E+00   -6.4965257823E+00
   -6.4814874539E+00   -6.4665186058E+00   -6.4516187622E+00   -6.4367874476E+00
   -6.4220241862E+00   -6.4073284154E+00   -6.3926997553E+00   -6.3781377630E+00
   -6.3636419849E+00   -6.3492119675E+00   -6.3348471935E+00   -6.3205472540E+00
   -6.3063117492E+00   -6.2921402469E+00   -6.2780323146E+00   -6.2639874852E+00
   -6.2500053085E+00   -6.2360854318E+00   -6.2222274428E+00   -6.2084309293E+00
   -6.1946954785E+00   -6.1810205893E+00   -6.1674059577E+00   -6.1538511907E+00
   -6.1403558954E+00   -6.1269196787E+00   -6.1135420951E+00   -6.1002227766E+00
   -6.0869613862E+00   -6.0737575491E+00   -6.0606108907E+00   -6.0475210279E+00
   -6.0344875174E+00   -6.0215100801E+00   -6.0085883587E+00   -5.9957219960E+00
   -5.9829106347E+00   -5.9701538712E+00   -5.9574513636E+00   -5.9448028108E+00
   -5.9322078723E+00   -5.9196662074E+00   -5.9071774756E+00   -5.8947412605E+00
   -5.8823573044E+00   -5.8700252896E+00   -5.8577448913E+00   -5.8455157847E+00
   -5.8333376265E+00   -5.8212100511E+00   -5.8091328115E+00   -5.7971055981E+00
   -5.7851281013E+00   -5.7732000115E+00   -5.7613209813E+00   -5.7494907030E+00
   -5.7377089237E+00   -5.7259753483E+00   -5.7142896816E+00   -5.7026516283E+00
   -5.6910608432E+00   -5.6795170619E+00   -5.6680200308E+00   -5.6565694684E+00
   -5.6451650935E+00   -5.6338066245E+00   -5.6224937234E+00   -5.6112261556E+00
   -5.6000036720E+00   -5.5888260043E+00   -5.5776928844E+00   -5.5666040438E+00
   -5.5555591565E+00   -5.5445580049E+00   -5.5336003497E+00   -5.5226859351E+00
   -5.5118145052E+00   -5.5009858042E+00   -5.4901995227E+00   -5.4794554482E+00
   -5.4687533557E+00   -5.4580930013E+00   -5.4474741410E+00   -5.4368965311E+00
   -5.4263598828E+00   -5.4158639777E+00   -5.4054086094E+00   -5.3949935455E+00
   -5.3846185534E+00   -5.3742834006E+00   -5.3639878236E+00   -5.3537315870E+00
   -5.3435145075E+00   -5.3333363635E+00   -5.3231969332E+00   -5.3130959950E+00
   -5.3030333143E+00   -5.2930086295E+00   -5.2830217837E+00   -5.2730725656E+00
   -5.2631607637E+00   -5.2532861667E+00   -5.2434485632E+00   -5.2336476859E+00
   -5.2238833779E+00   -5.2141554474E+00   -5.2044636927E+00   -5.1948079125E+00
   -5.1851879053E+00   -5.1756034406E+00   -5.1660543139E+00   -5.1565403688E+00
   -5.1470614134E+00   -5.1376172553E+00   -5.1282077026E+00   -5.1188325631E+00
   -5.1094915850E+00   -5.1001846415E+00   -5.0909115521E+00   -5.0816721337E+00
   -5.0724662030E+00   -5.0632935769E+00   -5.0541540478E+00   -5.0450474229E+00
   -5.0359735647E+00   -5.0269322986E+00   -5.0179234500E+00   -5.0089468441E+00
   -5.0000023065E+00   -4.9910896175E+00   -4.9822086381E+00   -4.9733592170E+00
   -4.9645411878E+00   -4.9557543838E+00   -4.9469986385E+00   -4.9382737840E+00
   -4.9295795990E+00   -4.9209159810E+00   -4.9122827713E+00   -4.9036798112E+00
   -4.8951069418E+00   -4.8865640045E+00   -4.8780508277E+00   -4.8695672226E+00
   -4.8611130822E+00   -4.8526882551E+00   -4.8442925901E+00   -4.8359259356E+00
   -4.8275881404E+00   -4.8192790342E+00   -4.8109984497E+00   -4.8027462798E+00
   -4.7945223800E+00   -4.7863266061E+00   -4.7781588138E+00   -4.7700188588E+00
   -4.7619065764E+00   -4.7538218107E+00   -4.7457644584E+00   -4.7377343820E+00
   -4.7297314439E+00   -4.7217555064E+00   -4.7138064321E+00   -4.7058840663E+00
   -4.6979882541E+00   -4.6901189005E+00   -4.6822758745E+00   -4.6744590448E+00
  </PP_LOCAL>
 <PP_NONLOCAL>
   <PP_BETA.1
       type="real"
       size=" 600"
       columns="4"
       index="1"
       angular_momentum="0"
       cutoff_radius_index=" 262"
       cutoff_radius="    2.6100000000E+00" >
    0.0000000000E+00    4.9113412195E-02    9.8171048455E-02    1.4711716605E-01
    1.9589608890E-01    2.4445224148E-01    2.9273018340E-01    3.4067464495E-01
    3.8823056373E-01    4.3534312264E-01    4.8195778940E-01    5.2802035781E-01
    5.7347699087E-01    6.1827426594E-01    6.6235922219E-01    7.0567941021E-01
    7.4818294413E-01    7.8981855622E-01    8.3053565404E-01    8.7028438018E-01
    9.0901567464E-01    9.4668133978E-01    9.8323410787E-01    1.0186277112E+00
    1.0528169544E+00    1.0857577896E+00    1.1174073933E+00    1.1477242453E+00
    1.1766682098E+00    1.2042006180E+00    1.2302843523E+00    1.2548839311E+00
    1.2779655955E+00    1.2994973946E+00    1.3194492750E+00    1.3377931646E+00
    1.3545030625E+00    1.3695551209E+00    1.3829277330E+00    1.3946016147E+00
    1.4045598850E+00    1.4127881450E+00    1.4192745540E+00    1.4240099015E+00
    1.4269876765E+00    1.4282041316E+00    1.4276583436E+00    1.4253522683E+00
    1.4212907901E+00    1.4154817623E+00    1.4079360543E+00    1.3986675740E+00
    1.3876932895E+00    1.3750332567E+00    1.3607106187E+00    1.3447516066E+00
    1.3271855419E+00    1.3080448046E+00    1.2873648262E+00    1.2651840400E+00
    1.2415438498E+00    1.2164885715E+00    1.1900653735E+00    1.1623242059E+00
    1.1333177208E+00    1.1031011835E+00    1.0717323677E+00    1.0392714542E+00
    1.0057809217E+00    9.7132539642E-01    9.3597153610E-01    8.9978788555E-01
    8.6284472521E-01    8.2521392943E-01    7.8696875180E-01    7.4818369943E-01
    7.0893434125E-01    6.6929712399E-01    6.2934918320E-01    5.8916814967E-01
    5.4883195206E-01    5.0841861626E-01    4.6800606221E-01    4.2767189895E-01
    3.8749321853E-01    3.4754638946E-01    3.0790685066E-01    2.6864890637E-01
    2.2984552303E-01    1.9156812875E-01    1.5388641628E-01    1.1686815016E-01
    8.0578978951E-02    4.5082253274E-02    1.0438850569E-02   -2.3292992720E-02
   -5.6057840702E-02   -8.7803195486E-02   -1.1847956065E-01   -1.4804088444E-01
   -1.7644436722E-01   -2.0365067090E-01   -2.2962401626E-01   -2.5433226769E-01
   -2.7774681860E-01   -2.9984322516E-01   -3.2060074853E-01   -3.4000249845E-01
   -3.5803545975E-01   -3.7469029987E-01   -3.8996211179E-01   -4.0384962965E-01
   -4.1635542402E-01   -4.2748564820E-01   -4.3725067669E-01   -4.4566441526E-01
   -4.5274428253E-01   -4.5851104010E-01   -4.6298932425E-01   -4.6620677897E-01
   -4.6819408613E-01   -4.6898514989E-01   -4.6861671013E-01   -4.6712808162E-01
   -4.6456120601E-01   -4.6096035537E-01   -4.5637190541E-01   -4.5084434717E-01
   -4.4442770649E-01   -4.3717370726E-01   -4.2913558502E-01   -4.2036722555E-01
   -4.1092394214E-01   -4.0086158999E-01   -3.9023600927E-01   -3.7910437221E-01
   -3.6752272235E-01   -3.5554726176E-01   -3.4323473070E-01   -3.3063932346E-01
   -3.1781633833E-01   -3.0481878460E-01   -2.9169828236E-01   -2.7850678129E-01