<UPF version="2.0.1">
  <PP_INFO>

 This pseudopotential file has been produced using the code
 ONCVPSP  (Optimized Norm-Conservinng Vanderbilt PSeudopotential)
 scalar-relativistic version 3.0.0 10/10/2014 by D. R. Hamann
 The code is available through a link at URL www.mat-simresearch.com.
 Documentation with the package provides a full discription of the
 input data below.


 While it is not required under the terms of the GNU GPL, it is
 suggested that you cite D. R. Hamann, Phys. Rev. B 88, 085117 (2013)
 in any publication using these pseudopotentials.

    <PP_INPUTFILE>
# ATOM AND REFERENCE CONFIGURATION
# atsym  z   nc   nv     iexc    psfile
  Rb 37.00    6    3 -116133      upf
#
#   n    l    f        energy (Ha)
    1    0    2.00
    2    0    2.00
    2    1    6.00
    3    0    2.00
    3    1    6.00
    3    2   10.00
    4    0    2.00
    4    1    6.00
    5    0    1.00
#
# PSEUDOPOTENTIAL AND OPTIMIZATION
# lmax
    2
#
#   l,   rc,     ep,   ncon, nbas, qcut
    0    3.18   -1.17    5    8    5.07
    1    3.00   -0.59    5    8    5.66
    2    2.89    0.16    5    8    6.13
#
# LOCAL POTENTIAL
# lloc, lpopt,  rc(5),   dvloc0
    4    5      2.39       0.00
#
# VANDERBILT-KLEINMAN-BYLANDER PROJECTORs
# l, nproj, debl
    0    2    1.0908
    1    2    1.1921
    2    2    1.2251
#
# MODEL CORE CHARGE
# icmod, fcfact
    0    0.00
#
# LOG DERIVATIVE ANALYSIS
# epsh1, epsh2, depsh
   -5.00    3.00    0.02
#
# OUTPUT GRID
# rlmax, drl
    6.00    0.01
#
# TEST CONFIGURATIONS
# ncnf
    0
# nvcnf
#   n    l    f
    </PP_INPUTFILE>
  </PP_INFO>
  <!--                               -->
  <!-- END OF HUMAN READABLE SECTION -->
  <!--                               -->
    <PP_HEADER
       generated="Generated using ONCVPSP code by D. R. Hamann"
       author="anonymous"
       date="150603"
       comment=""
       element="Rb"
       pseudo_type="NC"
       relativistic="scalar"
       is_ultrasoft="F"
       is_paw="F"
       is_coulomb="F"
       has_so="F"
       has_wfc="F"
       has_gipaw="F"
       core_correction="F"
       functional="PBESOL"
       z_valence="    9.00"
       total_psenergy="  -2.44204396427E+01"
       rho_cutoff="   5.99000000000E+00"
       l_max="2"
       l_local="-1"
       mesh_size="   600"
       number_of_wfc="0"
       number_of_proj="6"/>
 <PP_MESH>
   <PP_R type="real"  size=" 600" columns="8">
    0.0000    0.0100    0.0200    0.0300    0.0400    0.0500    0.0600    0.0700
    0.0800    0.0900    0.1000    0.1100    0.1200    0.1300    0.1400    0.1500
    0.1600    0.1700    0.1800    0.1900    0.2000    0.2100    0.2200    0.2300
    0.2400    0.2500    0.2600    0.2700    0.2800    0.2900    0.3000    0.3100
    0.3200    0.3300    0.3400    0.3500    0.3600    0.3700    0.3800    0.3900
    0.4000    0.4100    0.4200    0.4300    0.4400    0.4500    0.4600    0.4700
    0.4800    0.4900    0.5000    0.5100    0.5200    0.5300    0.5400    0.5500
    0.5600    0.5700    0.5800    0.5900    0.6000    0.6100    0.6200    0.6300
    0.6400    0.6500    0.6600    0.6700    0.6800    0.6900    0.7000    0.7100
    0.7200    0.7300    0.7400    0.7500    0.7600    0.7700    0.7800    0.7900
    0.8000    0.8100    0.8200    0.8300    0.8400    0.8500    0.8600    0.8700
    0.8800    0.8900    0.9000    0.9100    0.9200    0.9300    0.9400    0.9500
    0.9600    0.9700    0.9800    0.9900    1.0000    1.0100    1.0200    1.0300
    1.0400    1.0500    1.0600    1.0700    1.0800    1.0900    1.1000    1.1100
    1.1200    1.1300    1.1400    1.1500    1.1600    1.1700    1.1800    1.1900
    1.2000    1.2100    1.2200    1.2300    1.2400    1.2500    1.2600    1.2700
    1.2800    1.2900    1.3000    1.3100    1.3200    1.3300    1.3400    1.3500
    1.3600    1.3700    1.3800    1.3900    1.4000    1.4100    1.4200    1.4300
    1.4400    1.4500    1.4600    1.4700    1.4800    1.4900    1.5000    1.5100
    1.5200    1.5300    1.5400    1.5500    1.5600    1.5700    1.5800    1.5900
    1.6000    1.6100    1.6200    1.6300    1.6400    1.6500    1.6600    1.6700
    1.6800    1.6900    1.7000    1.7100    1.7200    1.7300    1.7400    1.7500
    1.7600    1.7700    1.7800    1.7900    1.8000    1.8100    1.8200    1.8300
    1.8400    1.8500    1.8600    1.8700    1.8800    1.8900    1.9000    1.9100
    1.9200    1.9300    1.9400    1.9500    1.9600    1.9700    1.9800    1.9900
    2.0000    2.0100    2.0200    2.0300    2.0400    2.0500    2.0600    2.0700
    2.0800    2.0900    2.1000    2.1100    2.1200    2.1300    2.1400    2.1500
    2.1600    2.1700    2.1800    2.1900    2.2000    2.2100    2.2200    2.2300
    2.2400    2.2500    2.2600    2.2700    2.2800    2.2900    2.3000    2.3100
    2.3200    2.3300    2.3400    2.3500    2.3600    2.3700    2.3800    2.3900
    2.4000    2.4100    2.4200    2.4300    2.4400    2.4500    2.4600    2.4700
    2.4800    2.4900    2.5000    2.5100    2.5200    2.5300    2.5400    2.5500
    2.5600    2.5700    2.5800    2.5900    2.6000    2.6100    2.6200    2.6300
    2.6400    2.6500    2.6600    2.6700    2.6800    2.6900    2.7000    2.7100
    2.7200    2.7300    2.7400    2.7500    2.7600    2.7700    2.7800    2.7900
    2.8000    2.8100    2.8200    2.8300    2.8400    2.8500    2.8600    2.8700
    2.8800    2.8900    2.9000    2.9100    2.9200    2.9300    2.9400    2.9500
    2.9600    2.9700    2.9800    2.9900    3.0000    3.0100    3.0200    3.0300
    3.0400    3.0500    3.0600    3.0700    3.0800    3.0900    3.1000    3.1100
    3.1200    3.1300    3.1400    3.1500    3.1600    3.1700    3.1800    3.1900
    3.2000    3.2100    3.2200    3.2300    3.2400    3.2500    3.2600    3.2700
    3.2800    3.2900    3.3000    3.3100    3.3200    3.3300    3.3400    3.3500
    3.3600    3.3700    3.3800    3.3900    3.4000    3.4100    3.4200    3.4300
    3.4400    3.4500    3.4600    3.4700    3.4800    3.4900    3.5000    3.5100
    3.5200    3.5300    3.5400    3.5500    3.5600    3.5700    3.5800    3.5900
    3.6000    3.6100    3.6200    3.6300    3.6400    3.6500    3.6600    3.6700
    3.6800    3.6900    3.7000    3.7100    3.7200    3.7300    3.7400    3.7500
    3.7600    3.7700    3.7800    3.7900    3.8000    3.8100    3.8200    3.8300
    3.8400    3.8500    3.8600    3.8700    3.8800    3.8900    3.9000    3.9100
    3.9200    3.9300    3.9400    3.9500    3.9600    3.9700    3.9800    3.9900
    4.0000    4.0100    4.0200    4.0300    4.0400    4.0500    4.0600    4.0700
    4.0800    4.0900    4.1000    4.1100    4.1200    4.1300    4.1400    4.1500
    4.1600    4.1700    4.1800    4.1900    4.2000    4.2100    4.2200    4.2300
    4.2400    4.2500    4.2600    4.2700    4.2800    4.2900    4.3000    4.3100
    4.3200    4.3300    4.3400    4.3500    4.3600    4.3700    4.3800    4.3900
    4.4000    4.4100    4.4200    4.4300    4.4400    4.4500    4.4600    4.4700
    4.4800    4.4900    4.5000    4.5100    4.5200    4.5300    4.5400    4.5500
    4.5600    4.5700    4.5800    4.5900    4.6000    4.6100    4.6200    4.6300
    4.6400    4.6500    4.6600    4.6700    4.6800    4.6900    4.7000    4.7100
    4.7200    4.7300    4.7400    4.7500    4.7600    4.7700    4.7800    4.7900
    4.8000    4.8100    4.8200    4.8300    4.8400    4.8500    4.8600    4.8700
    4.8800    4.8900    4.9000    4.9100    4.9200    4.9300    4.9400    4.9500
    4.9600    4.9700    4.9800    4.9900    5.0000    5.0100    5.0200    5.0300
    5.0400    5.0500    5.0600    5.0700    5.0800    5.0900    5.1000    5.1100
    5.1200    5.1300    5.1400    5.1500    5.1600    5.1700    5.1800    5.1900
    5.2000    5.2100    5.2200    5.2300    5.2400    5.2500    5.2600    5.2700
    5.2800    5.2900    5.3000    5.3100    5.3200    5.3300    5.3400    5.3500
    5.3600    5.3700    5.3800    5.3900    5.4000    5.4100    5.4200    5.4300
    5.4400    5.4500    5.4600    5.4700    5.4800    5.4900    5.5000    5.5100
    5.5200    5.5300    5.5400    5.5500    5.5600    5.5700    5.5800    5.5900
    5.6000    5.6100    5.6200    5.6300    5.6400    5.6500    5.6600    5.6700
    5.6800    5.6900    5.7000    5.7100    5.7200    5.7300    5.7400    5.7500
    5.7600    5.7700    5.7800    5.7900    5.8000    5.8100    5.8200    5.8300
    5.8400    5.8500    5.8600    5.8700    5.8800    5.8900    5.9000    5.9100
    5.9200    5.9300    5.9400    5.9500    5.9600    5.9700    5.9800    5.9900
   </PP_R>
   <PP_RAB type="real"  size=" 600" columns="8">
    0.0100    0.0100    0.0100    0.0100    0.0100    0.0100    0.0100    0.0100
    0.0100    0.0100    0.0100    0.0100    0.0100    0.0100    0.0100    0.0100
    0.0100    0.0100    0.0100    0.0100    0.0100    0.0100    0.0100    0.0100
    0.0100    0.0100    0.0100    0.0100    0.0100    0.0100    0.0100    0.0100
    0.0100    0.0100    0.0100    0.0100    0.0100    0.0100    0.0100    0.0100
    0.0100    0.0100    0.0100    0.0100    0.0100    0.0100    0.0100    0.0100
    0.0100    0.0100    0.0100    0.0100    0.0100    0.0100    0.0100    0.0100
    0.0100    0.0100    0.0100    0.0100    0.0100    0.0100    0.0100    0.0100
    0.0100    0.0100    0.0100    0.0100    0.0100    0.0100    0.0100    0.0100
    0.0100    0.0100    0.0100    0.0100    0.0100    0.0100    0.0100    0.0100
    0.0100    0.0100    0.0100    0.0100    0.0100    0.0100    0.0100    0.0100
    0.0100    0.0100    0.0100    0.0100    0.0100    0.0100    0.0100    0.0100
    0.0100    0.0100    0.0100    0.0100    0.0100    0.0100    0.0100    0.0100
    0.0100    0.0100    0.0100    0.0100    0.0100    0.0100    0.0100    0.0100
    0.0100    0.0100    0.0100    0.0100    0.0100    0.0100    0.0100    0.0100
    0.0100    0.0100    0.0100    0.0100    0.0100    0.0100    0.0100    0.0100
    0.0100    0.0100    0.0100    0.0100    0.0100    0.0100    0.0100    0.0100
    0.0100    0.0100    0.0100    0.0100    0.0100    0.0100    0.0100    0.0100
    0.0100    0.0100    0.0100    0.0100    0.0100    0.0100    0.0100    0.0100
    0.0100    0.0100    0.0100    0.0100    0.0100    0.0100    0.0100    0.0100
    0.0100    0.0100    0.0100    0.0100    0.0100    0.0100    0.0100    0.0100
    0.0100    0.0100    0.0100    0.0100    0.0100    0.0100    0.0100    0.0100
    0.0100    0.0100    0.0100    0.0100    0.0100    0.0100    0.0100    0.0100
    0.0100    0.0100    0.0100    0.0100    0.0100    0.0100    0.0100    0.0100
    0.0100    0.0100    0.0100    0.0100    0.0100    0.0100    0.0100    0.0100
    0.0100    0.0100    0.0100    0.0100    0.0100    0.0100    0.0100    0.0100
    0.0100    0.0100    0.0100    0.0100    0.0100    0.0100    0.0100    0.0100
    0.0100    0.0100    0.0100    0.0100    0.0100    0.0100    0.0100    0.0100
    0.0100    0.0100    0.0100    0.0100    0.0100    0.0100    0.0100    0.0100
    0.0100    0.0100    0.0100    0.0100    0.0100    0.0100    0.0100    0.0100
    0.0100    0.0100    0.0100    0.0100    0.0100    0.0100    0.0100    0.0100
    0.0100    0.0100    0.0100    0.0100    0.0100    0.0100    0.0100    0.0100
    0.0100    0.0100    0.0100    0.0100    0.0100    0.0100    0.0100    0.0100
    0.0100    0.0100    0.0100    0.0100    0.0100    0.0100    0.0100    0.0100
    0.0100    0.0100    0.0100    0.0100    0.0100    0.0100    0.0100    0.0100
    0.0100    0.0100    0.0100    0.0100    0.0100    0.0100    0.0100    0.0100
    0.0100    0.0100    0.0100    0.0100    0.0100    0.0100    0.0100    0.0100
    0.0100    0.0100    0.0100    0.0100    0.0100    0.0100    0.0100    0.0100
    0.0100    0.0100    0.0100    0.0100    0.0100    0.0100    0.0100    0.0100
    0.0100    0.0100    0.0100    0.0100    0.0100    0.0100    0.0100    0.0100
    0.0100    0.0100    0.0100    0.0100    0.0100    0.0100    0.0100    0.0100
    0.0100    0.0100    0.0100    0.0100    0.0100    0.0100    0.0100    0.0100
    0.0100    0.0100    0.0100    0.0100    0.0100    0.0100    0.0100    0.0100
    0.0100    0.0100    0.0100    0.0100    0.0100    0.0100    0.0100    0.0100
    0.0100    0.0100    0.0100    0.0100    0.0100    0.0100    0.0100    0.0100
    0.0100    0.0100    0.0100    0.0100    0.0100    0.0100    0.0100    0.0100
    0.0100    0.0100    0.0100    0.0100    0.0100    0.0100    0.0100    0.0100
    0.0100    0.0100    0.0100    0.0100    0.0100    0.0100    0.0100    0.0100
    0.0100    0.0100    0.0100    0.0100    0.0100    0.0100    0.0100    0.0100
    0.0100    0.0100    0.0100    0.0100    0.0100    0.0100    0.0100    0.0100
    0.0100    0.0100    0.0100    0.0100    0.0100    0.0100    0.0100    0.0100
    0.0100    0.0100    0.0100    0.0100    0.0100    0.0100    0.0100    0.0100
    0.0100    0.0100    0.0100    0.0100    0.0100    0.0100    0.0100    0.0100
    0.0100    0.0100    0.0100    0.0100    0.0100    0.0100    0.0100    0.0100
    0.0100    0.0100    0.0100    0.0100    0.0100    0.0100    0.0100    0.0100
    0.0100    0.0100    0.0100    0.0100    0.0100    0.0100    0.0100    0.0100
    0.0100    0.0100    0.0100    0.0100    0.0100    0.0100    0.0100    0.0100
    0.0100    0.0100    0.0100    0.0100    0.0100    0.0100    0.0100    0.0100
    0.0100    0.0100    0.0100    0.0100    0.0100    0.0100    0.0100    0.0100
    0.0100    0.0100    0.0100    0.0100    0.0100    0.0100    0.0100    0.0100
    0.0100    0.0100    0.0100    0.0100    0.0100    0.0100    0.0100    0.0100
    0.0100    0.0100    0.0100    0.0100    0.0100    0.0100    0.0100    0.0100
    0.0100    0.0100    0.0100    0.0100    0.0100    0.0100    0.0100    0.0100
    0.0100    0.0100    0.0100    0.0100    0.0100    0.0100    0.0100    0.0100
    0.0100    0.0100    0.0100    0.0100    0.0100    0.0100    0.0100    0.0100
    0.0100    0.0100    0.0100    0.0100    0.0100    0.0100    0.0100    0.0100
    0.0100    0.0100    0.0100    0.0100    0.0100    0.0100    0.0100    0.0100
    0.0100    0.0100    0.0100    0.0100    0.0100    0.0100    0.0100    0.0100
    0.0100    0.0100    0.0100    0.0100    0.0100    0.0100    0.0100    0.0100
    0.0100    0.0100    0.0100    0.0100    0.0100    0.0100    0.0100    0.0100
    0.0100    0.0100    0.0100    0.0100    0.0100    0.0100    0.0100    0.0100
    0.0100    0.0100    0.0100    0.0100    0.0100    0.0100    0.0100    0.0100
    0.0100    0.0100    0.0100    0.0100    0.0100    0.0100    0.0100    0.0100
    0.0100    0.0100    0.0100    0.0100    0.0100    0.0100    0.0100    0.0100
    0.0100    0.0100    0.0100    0.0100    0.0100    0.0100    0.0100    0.0100
   </PP_RAB>
 </PP_MESH>
  <PP_LOCAL type="real"  size=" 600" columns="4">
   -1.6945310530E+01   -1.6945195121E+01   -1.6944878106E+01   -1.6944327692E+01
   -1.6943512084E+01   -1.6942389054E+01   -1.6940908040E+01   -1.6939012540E+01
   -1.6936642636E+01   -1.6933737481E+01   -1.6930237622E+01   -1.6926087018E+01
   -1.6921234694E+01   -1.6915635985E+01   -1.6909253361E+01   -1.6902056860E+01
   -1.6894024159E+01   -1.6885140367E+01   -1.6875397567E+01   -1.6864794202E+01
   -1.6853334345E+01   -1.6841026910E+01   -1.6827884852E+01   -1.6813924382E+01
   -1.6799164227E+01   -1.6783624954E+01   -1.6767328359E+01   -1.6750296938E+01
   -1.6732553430E+01   -1.6714120441E+01   -1.6695020124E+01   -1.6675273937E+01
   -1.6654902442E+01   -1.6633925167E+01   -1.6612360501E+01   -1.6590225621E+01
   -1.6567536468E+01   -1.6544307722E+01   -1.6520552816E+01   -1.6496283961E+01
   -1.6471512178E+01   -1.6446247347E+01   -1.6420498258E+01   -1.6394272675E+01
   -1.6367577390E+01   -1.6340418295E+01   -1.6312800446E+01   -1.6284728126E+01
   -1.6256204912E+01   -1.6227233742E+01   -1.6197816980E+01   -1.6167956471E+01
   -1.6137653605E+01   -1.6106909378E+01   -1.6075724440E+01   -1.6044099153E+01
   -1.6012033640E+01   -1.5979527833E+01   -1.5946581518E+01   -1.5913194378E+01
   -1.5879366032E+01   -1.5845096075E+01   -1.5810384109E+01   -1.5775229780E+01
   -1.5739632804E+01   -1.5703592998E+01   -1.5667110302E+01   -1.5630184802E+01
   -1.5592816755E+01   -1.5555006602E+01   -1.5516754988E+01   -1.5478062769E+01
   -1.5438931038E+01   -1.5399361124E+01   -1.5359354604E+01   -1.5318913310E+01
   -1.5278039335E+01   -1.5236735036E+01   -1.5195003034E+01   -1.5152846226E+01
   -1.5110267771E+01   -1.5067271098E+01   -1.5023859901E+01   -1.4980038134E+01
   -1.4935810011E+01   -1.4891180000E+01   -1.4846152816E+01   -1.4800733417E+01
   -1.4754926997E+01   -1.4708738979E+01   -1.4662175007E+01   -1.4615240940E+01
   -1.4567942841E+01   -1.4520286976E+01   -1.4472279799E+01   -1.4423927947E+01
   -1.4375238228E+01   -1.4326217617E+01   -1.4276873245E+01   -1.4227212391E+01
   -1.4177242470E+01   -1.4126971033E+01   -1.4076405759E+01   -1.4025554437E+01
   -1.3974424964E+01   -1.3923025338E+01   -1.3871363642E+01   -1.3819448058E+01
   -1.3767286839E+01   -1.3714888307E+01   -1.3662260848E+01   -1.3609412904E+01
   -1.3556352976E+01   -1.3503089600E+01   -1.3449631353E+01   -1.3395986844E+01
   -1.3342164711E+01   -1.3288173610E+01   -1.3234022211E+01   -1.3179719198E+01
   -1.3125273256E+01   -1.3070693071E+01   -1.3015987326E+01   -1.2961164690E+01
   -1.2906233819E+01   -1.2851203358E+01   -1.2796081914E+01   -1.2740878075E+01
   -1.2685600408E+01   -1.2630257422E+01   -1.2574857602E+01   -1.2519409397E+01
   -1.2463921187E+01   -1.2408401324E+01   -1.2352858101E+01   -1.2297299738E+01
   -1.2241734432E+01   -1.2186170280E+01   -1.2130615325E+01   -1.2075077570E+01
   -1.2019564890E+01   -1.1964085150E+01   -1.1908646090E+01   -1.1853255383E+01
   -1.1797920659E+01   -1.1742649385E+01   -1.1687449045E+01   -1.1632326934E+01
   -1.1577290327E+01   -1.1522346384E+01   -1.1467502147E+01   -1.1412764636E+01
   -1.1358140654E+01   -1.1303637063E+01   -1.1249260449E+01   -1.1195017456E+01
   -1.1140914498E+01   -1.1086957974E+01   -1.1033154124E+01   -1.0979509099E+01
   -1.0926028955E+01   -1.0872719592E+01   -1.0819586876E+01   -1.0766636457E+01
   -1.0713874003E+01   -1.0661304910E+01   -1.0608934640E+01   -1.0556768343E+01
   -1.0504811261E+01   -1.0453068299E+01   -1.0401544475E+01   -1.0350244453E+01
   -1.0299173010E+01   -1.0248334580E+01   -1.0197733690E+01   -1.0147374548E+01
   -1.0097261416E+01   -1.0047398292E+01   -9.9977891548E+00   -9.9484378040E+00
   -9.8993479208E+00   -9.8505231202E+00   -9.8019667677E+00   -9.7536823092E+00
   -9.7056727778E+00   -9.6579414642E+00   -9.6104910864E+00   -9.5633246953E+00
   -9.5164448037E+00   -9.4698541247E+00   -9.4235550413E+00   -9.3775498835E+00
   -9.3318409323E+00   -9.2864301100E+00   -9.2413196152E+00   -9.1965110113E+00
   -9.1520062355E+00   -9.1078067086E+00   -9.0639139489E+00   -9.0203293402E+00
   -8.9770539271E+00   -8.9340890812E+00   -8.8914354639E+00   -8.8490941319E+00
   -8.8070657019E+00   -8.7653507286E+00   -8.7239498758E+00   -8.6828632282E+00
   -8.6420912869E+00   -8.6016339766E+00   -8.5614913051E+00   -8.5216633039E+00
   -8.4821494621E+00   -8.4429496958E+00   -8.4040633276E+00   -8.3654897480E+00
   -8.3272284526E+00   -8.2892783066E+00   -8.2516386083E+00   -8.2143081837E+00
   -8.1772857221E+00   -8.1405702916E+00   -8.1041601036E+00   -8.0680537915E+00
   -8.0322498076E+00   -7.9967461459E+00   -7.9615412476E+00   -7.9266329535E+00
   -7.8920190636E+00   -7.8576977859E+00   -7.8236663905E+00   -7.7899225754E+00
   -7.7564640007E+00   -7.7232876861E+00   -7.6903911139E+00   -7.6577713985E+00
   -7.6254253136E+00   -7.5933500881E+00   -7.5615423302E+00   -7.5299985939E+00
   -7.4987155953E+00   -7.4676899226E+00   -7.4369181898E+00   -7.4063967751E+00
   -7.3761227467E+00   -7.3460928987E+00   -7.3163038612E+00   -7.2867529110E+00
   -7.2574370369E+00   -7.2283531301E+00   -7.1994986376E+00   -7.1708707389E+00
   -7.1424665446E+00   -7.1142836615E+00   -7.0863194536E+00   -7.0585712114E+00
   -7.0310366910E+00   -7.0037134317E+00   -6.9765988694E+00   -6.9496908972E+00
   -6.9229872186E+00   -6.8964853856E+00   -6.8701834154E+00   -6.8440791494E+00
   -6.8181702718E+00   -6.7924548709E+00   -6.7669309133E+00   -6.7415962323E+00
   -6.7164489392E+00   -6.6914871229E+00   -6.6667087525E+00   -6.6421119498E+00
   -6.6176949131E+00   -6.5934557346E+00   -6.5693925387E+00   -6.5455036209E+00
   -6.5217871849E+00   -6.4982413536E+00   -6.4748645083E+00   -6.4516549282E+00
   -6.4286108118E+00   -6.4057305374E+00   -6.3830124704E+00   -6.3604549075E+00
   -6.3380561927E+00   -6.3158147798E+00   -6.2937290611E+00   -6.2717973443E+00
   -6.2500181639E+00   -6.2283899653E+00   -6.2069111410E+00   -6.1855801790E+00
   -6.1643956089E+00   -6.1433559128E+00   -6.1224595238E+00   -6.1017050521E+00
   -6.0810910339E+00   -6.0606159318E+00   -6.0402783417E+00   -6.0200769100E+00
   -6.0000102251E+00   -5.9800767270E+00   -5.9602752692E+00   -5.9406045374E+00
   -5.9210631396E+00   -5.9016497782E+00   -5.8823633163E+00   -5.8632025209E+00
   -5.8441660681E+00   -5.8252528342E+00   -5.8064616628E+00   -5.7877913605E+00
   -5.7692406702E+00   -5.7508085577E+00   -5.7324938933E+00   -5.7142955003E+00
   -5.6962122417E+00   -5.6782431137E+00   -5.6603870392E+00   -5.6426428697E+00
   -5.6250095825E+00   -5.6074861959E+00   -5.5900716822E+00   -5.5727649217E+00
   -5.5555649913E+00   -5.5384709384E+00   -5.5214817845E+00   -5.5045964495E+00
   -5.4878140899E+00   -5.4711337826E+00   -5.4545545945E+00   -5.4380754922E+00
   -5.4216956886E+00   -5.4054142945E+00   -5.3892304153E+00   -5.3731430711E+00
   -5.3571515113E+00   -5.3412548882E+00   -5.3254523493E+00   -5.3097429555E+00
   -5.2941259952E+00   -5.2786006600E+00   -5.2631661415E+00   -5.2478215341E+00
   -5.2325661618E+00   -5.2173992552E+00   -5.2023200436E+00   -5.1873276699E+00
   -5.1724214688E+00   -5.1576007174E+00   -5.1428646808E+00   -5.1282125535E+00
   -5.1136436688E+00   -5.0991573530E+00   -5.0847529055E+00   -5.0704295751E+00
   -5.0561866828E+00   -5.0420236063E+00   -5.0279396775E+00   -5.0139342026E+00
   -5.0000064806E+00   -4.9861559415E+00   -4.9723819486E+00   -4.9586838652E+00
   -4.9450609688E+00   -4.9315127335E+00   -4.9180385551E+00   -4.9046378268E+00
   -4.8913098868E+00   -4.8780541645E+00   -4.8648701161E+00   -4.8517571629E+00
   -4.8387147082E+00   -4.8257421279E+00   -4.8128389387E+00   -4.8000045887E+00
   -4.7872385263E+00   -4.7745401373E+00   -4.7619089287E+00   -4.7493443969E+00
   -4.7368460158E+00   -4.7244132406E+00   -4.7120455061E+00   -4.6997423741E+00
   -4.6875033431E+00   -4.6753279118E+00   -4.6632155257E+00   -4.6511657231E+00
   -4.6391780542E+00   -4.6272520407E+00   -4.6153872020E+00   -4.6035829889E+00
   -4.5918390197E+00   -4.5801548384E+00   -4.5685299893E+00   -4.5569639891E+00
   -4.5454563668E+00   -4.5340067375E+00   -4.5226146665E+00   -4.5112797192E+00
   -4.5000014146E+00   -4.4887793475E+00   -4.4776131324E+00   -4.4665023551E+00
   -4.4554466009E+00   -4.4444453958E+00   -4.4334983874E+00   -4.4226051938E+00
   -4.4117654197E+00   -4.4009786699E+00   -4.3902444810E+00   -4.3795625418E+00
   -4.3689324773E+00   -4.3583539108E+00   -4.3478264607E+00   -4.3373496918E+00
   -4.3269233088E+00   -4.3165469523E+00   -4.3062202631E+00   -4.2959428750E+00
   -4.2857143765E+00   -4.2755344854E+00   -4.2654028592E+00   -4.2553191554E+00
   -4.2452830264E+00   -4.2352940747E+00   -4.2253520344E+00   -4.2154565789E+00
   -4.2056073816E+00   -4.1958041159E+00   -4.1860463920E+00   -4.1763339602E+00
   -4.1666665100E+00   -4.1570437301E+00   -4.1474653091E+00   -4.1379308825E+00
   -4.1284401933E+00   -4.1189929552E+00   -4.1095888713E+00   -4.1002276446E+00
   -4.0909089392E+00   -4.0816324823E+00   -4.0723980142E+00   -4.0632052521E+00
   -4.0540539128E+00   -4.0449436915E+00   -4.0358742921E+00   -4.0268454841E+00
   -4.0178569976E+00   -4.0089085628E+00   -3.9999999088E+00   -3.9911307097E+00
   -3.9823007653E+00   -3.9735098184E+00   -3.9647576119E+00   -3.9560438884E+00
   -3.9473683546E+00   -3.9387307742E+00   -3.9301309243E+00   -3.9215685596E+00
   -3.9130434349E+00   -3.9045552961E+00   -3.8961038608E+00   -3.8876889427E+00
   -3.8793103079E+00   -3.8709677228E+00   -3.8626609534E+00   -3.8543897313E+00
   -3.8461538428E+00   -3.8379530862E+00   -3.8297872384E+00   -3.8216560766E+00
   -3.8135593764E+00   -3.8054968646E+00   -3.7974683806E+00   -3.7894737117E+00
   -3.7815126455E+00   -3.7735849694E+00   -3.7656904514E+00   -3.7578288683E+00
   -3.7500000511E+00   -3.7422037971E+00   -3.7344399037E+00   -3.7267081684E+00
   -3.7190083557E+00   -3.7113402824E+00   -3.7037037744E+00   -3.6960986387E+00
   -3.6885246819E+00   -3.6809817110E+00   -3.6734694911E+00   -3.6659878694E+00
   -3.6585366703E+00   -3.6511157096E+00   -3.6437248032E+00   -3.6363637670E+00
   -3.6290323698E+00   -3.6217304806E+00   -3.6144579255E+00   -3.6072145292E+00
   -3.6000001158E+00   -3.5928145089E+00   -3.5856574876E+00   -3.5785289306E+00
   -3.5714286708E+00   -3.5643565405E+00   -3.5573123725E+00   -3.5502959988E+00
   -3.5433072067E+00   -3.5363458822E+00   -3.5294118659E+00   -3.5225049980E+00
   -3.5156251190E+00   -3.5087720692E+00   -3.5019456470E+00   -3.4951457381E+00
   -3.4883721938E+00   -3.4816248619E+00   -3.4749035902E+00   -3.4682082265E+00
   -3.4615385844E+00   -3.4548945408E+00   -3.4482759611E+00   -3.4416827003E+00
   -3.4351146132E+00   -3.4285715548E+00   -3.4220533563E+00   -3.4155598794E+00
   -3.4090910062E+00   -3.4026465983E+00   -3.3962265175E+00   -3.3898306253E+00
   -3.3834587734E+00   -3.3771108023E+00   -3.3707866127E+00   -3.3644860727E+00
   -3.3582090505E+00   -3.3519554141E+00   -3.3457250317E+00   -3.3395177361E+00
   -3.3333334295E+00   -3.3271719925E+00   -3.3210332993E+00   -3.3149172243E+00
   -3.3088236416E+00   -3.3027524094E+00   -3.2967033955E+00   -3.2906765048E+00
   -3.2846716174E+00   -3.2786886135E+00   -3.2727273731E+00   -3.2667877764E+00
   -3.2608696696E+00   -3.2549729656E+00   -3.2490975559E+00   -3.2432433262E+00
   -3.2374101623E+00   -3.2315979497E+00   -3.2258065647E+00   -3.2200358745E+00
   -3.2142857993E+00   -3.2085562302E+00   -3.2028470582E+00   -3.1971581744E+00
   -3.1914894697E+00   -3.1858408142E+00   -3.1802121055E+00   -3.1746032569E+00
   -3.1690141644E+00   -3.1634447242E+00   -3.1578948323E+00   -3.1523643849E+00
   -3.1468532493E+00   -3.1413613457E+00   -3.1358885834E+00   -3.1304348634E+00
   -3.1250000865E+00   -3.1195841538E+00   -3.1141869662E+00   -3.1088083915E+00
   -3.1034483650E+00   -3.0981067953E+00   -3.0927835879E+00   -3.0874786482E+00
   -3.0821918821E+00   -3.0769231948E+00   -3.0716724576E+00   -3.0664396142E+00
   -3.0612245750E+00   -3.0560272502E+00   -3.0508475496E+00   -3.0456853831E+00
   -3.0405406609E+00   -3.0354132596E+00   -3.0303031252E+00   -3.0252101730E+00
   -3.0201343172E+00   -3.0150754719E+00   -3.0100335513E+00   -3.0050084695E+00
  </PP_LOCAL>
 <PP_NONLOCAL>
   <PP_BETA.1
       type="real"
       size=" 600"
       columns="4"
       index="1"
       angular_momentum="0"
       cutoff_radius_index=" 322"
       cutoff_radius="    3.2100000000E+00" >
    0.0000000000E+00    3.4798799009E-02    6.9568441104E-02    1.0427979796E-01
    1.3890379843E-01    1.7341145704E-01    2.0777390241E-01    2.4196240560E-01
    2.7594840829E-01    3.0970355077E-01    3.4319969980E-01    3.7640897619E-01
    4.0930378218E-01    4.4185682848E-01    4.7404116114E-01    5.0583018793E-01
    5.3719770446E-01    5.6811791994E-01    5.9856548248E-01    6.2851550397E-01
    6.5794358454E-01    6.8682583646E-01    7.1513890765E-01    7.4286000455E-01
    7.6996691450E-01    7.9643802751E-01    8.2225235746E-01    8.4738956257E-01
    8.7182996544E-01    8.9555457220E-01    9.1854509105E-01    9.4078395006E-01
    9.6225431445E-01    9.8294010277E-01    1.0028260023E+00    1.0218974844E+00
    1.0401408178E+00    1.0575430823E+00    1.0740921808E+00    1.0897768508E+00
    1.1045866747E+00    1.1185120902E+00    1.1315443985E+00    1.1436757721E+00
    1.1548992622E+00    1.1652088043E+00    1.1745992235E+00    1.1830662386E+00
    1.1906064650E+00    1.1972174173E+00    1.2028975098E+00    1.2076460574E+00
    1.2114632748E+00    1.2143502738E+00    1.2163090621E+00    1.2173425381E+00
    1.2174544869E+00    1.2166495746E+00    1.2149333412E+00    1.2123121934E+00
    1.2087933956E+00    1.2043850604E+00    1.1990961377E+00    1.1929364039E+00
    1.1859164489E+00    1.1780476620E+00    1.1693422194E+00    1.1598130680E+00
    1.1494739078E+00    1.1383391770E+00    1.1264240338E+00    1.1137443396E+00
    1.1003166331E+00    1.0861581165E+00    1.0712866321E+00    1.0557206410E+00
    1.0394792004E+00    1.0225819406E+00    1.0050490432E+00    9.8690120982E-01
    9.6815964402E-01    9.4884602334E-01    9.2898247316E-01    9.0859154004E-01
    8.8769616456E-01    8.6631965371E-01    8.4448565295E-01    8.2221811779E-01
    7.9954128519E-01    7.7647964450E-01    7.5305790832E-01    7.2930098306E-01
    7.0523394708E-01    6.8088200052E-01    6.5627045229E-01    6.3142468648E-01
    6.0637013180E-01    5.8113223179E-01    5.5573641516E-01    5.3020806636E-01
    5.0457251101E-01    4.7885495693E-01    4.5308046536E-01    4.2727394725E-01
    4.0146012421E-01    3.7566350134E-01    3.4990838598E-01    3.2421872047E-01
    2.9861818508E-01    2.7313013675E-01    2.4777761146E-01    2.2258325546E-01
    1.9756925097E-01    1.7275739455E-01    1.4816907464E-01    1.2382519594E-01
    9.9746082658E-02    7.5951602235E-02    5.2461177647E-02    2.9293539787E-02
    6.4668584064E-03   -1.6001198742E-02   -3.8093574082E-02   -5.9793975650E-02
   -8.1086626787E-02   -1.0195631884E-01   -1.2238875279E-01   -1.4237014513E-01
   -1.6188729513E-01   -1.8092798262E-01   -1.9948048682E-01   -2.1753375405E-01
   -2.3507769639E-01   -2.5210269562E-01   -2.6859996214E-01   -2.8456155683E-01
   -2.9997998263E-01   -3.1484879818E-01   -3.2916215063E-01   -3.4291480616E-01
   -3.5610256882E-01   -3.6872162996E-01   -3.8076916863E-01   -3.9224299548E-01