<UPF version="2.0.1">
  <PP_INFO>

 This pseudopotential file has been produced using the code
 ONCVPSP  (Optimized Norm-Conservinng Vanderbilt PSeudopotential)
 scalar-relativistic version 3.0.0 10/10/2014 by D. R. Hamann
 The code is available through a link at URL www.mat-simresearch.com.
 Documentation with the package provides a full discription of the
 input data below.


 While it is not required under the terms of the GNU GPL, it is
 suggested that you cite D. R. Hamann, Phys. Rev. B 88, 085117 (2013)
 in any publication using these pseudopotentials.

    <PP_INPUTFILE>
# ATOM AND REFERENCE CONFIGURATION
# atsym  z   nc   nv     iexc    psfile
  Ru 44.00    6    4 -116133      upf
#
#   n    l    f        energy (Ha)
    1    0    2.00
    2    0    2.00
    2    1    6.00
    3    0    2.00
    3    1    6.00
    3    2   10.00
    4    0    2.00
    4    1    6.00
    5    0    2.00
    4    2    6.00
#
# PSEUDOPOTENTIAL AND OPTIMIZATION
# lmax
    2
#
#   l,   rc,     ep,   ncon, nbas, qcut
    0    2.58   -2.93    5    8    5.63
    1    2.52   -1.82    5    8    5.80
    2    2.61   -0.28    5    8    5.78
#
# LOCAL POTENTIAL
# lloc, lpopt,  rc(5),   dvloc0
    4    5      1.53       0.00
#
# VANDERBILT-KLEINMAN-BYLANDER PROJECTORs
# l, nproj, debl
    0    2    2.7344
    1    2    2.0084
    2    2    1.5817
#
# MODEL CORE CHARGE
# icmod, fcfact
    0    0.00
#
# LOG DERIVATIVE ANALYSIS
# epsh1, epsh2, depsh
   -5.00    3.00    0.02
#
# OUTPUT GRID
# rlmax, drl
    6.00    0.01
#
# TEST CONFIGURATIONS
# ncnf
    0
# nvcnf
#   n    l    f
    </PP_INPUTFILE>
  </PP_INFO>
  <!--                               -->
  <!-- END OF HUMAN READABLE SECTION -->
  <!--                               -->
    <PP_HEADER
       generated="Generated using ONCVPSP code by D. R. Hamann"
       author="anonymous"
       date="150603"
       comment=""
       element="Ru"
       pseudo_type="NC"
       relativistic="scalar"
       is_ultrasoft="F"
       is_paw="F"
       is_coulomb="F"
       has_so="F"
       has_wfc="F"
       has_gipaw="F"
       core_correction="F"
       functional="PBESOL"
       z_valence="   16.00"
       total_psenergy="  -9.38824051468E+01"
       rho_cutoff="   5.99000000000E+00"
       l_max="2"
       l_local="-1"
       mesh_size="   600"
       number_of_wfc="0"
       number_of_proj="6"/>
 <PP_MESH>
   <PP_R type="real"  size=" 600" columns="8">
    0.0000    0.0100    0.0200    0.0300    0.0400    0.0500    0.0600    0.0700
    0.0800    0.0900    0.1000    0.1100    0.1200    0.1300    0.1400    0.1500
    0.1600    0.1700    0.1800    0.1900    0.2000    0.2100    0.2200    0.2300
    0.2400    0.2500    0.2600    0.2700    0.2800    0.2900    0.3000    0.3100
    0.3200    0.3300    0.3400    0.3500    0.3600    0.3700    0.3800    0.3900
    0.4000    0.4100    0.4200    0.4300    0.4400    0.4500    0.4600    0.4700
    0.4800    0.4900    0.5000    0.5100    0.5200    0.5300    0.5400    0.5500
    0.5600    0.5700    0.5800    0.5900    0.6000    0.6100    0.6200    0.6300
    0.6400    0.6500    0.6600    0.6700    0.6800    0.6900    0.7000    0.7100
    0.7200    0.7300    0.7400    0.7500    0.7600    0.7700    0.7800    0.7900
    0.8000    0.8100    0.8200    0.8300    0.8400    0.8500    0.8600    0.8700
    0.8800    0.8900    0.9000    0.9100    0.9200    0.9300    0.9400    0.9500
    0.9600    0.9700    0.9800    0.9900    1.0000    1.0100    1.0200    1.0300
    1.0400    1.0500    1.0600    1.0700    1.0800    1.0900    1.1000    1.1100
    1.1200    1.1300    1.1400    1.1500    1.1600    1.1700    1.1800    1.1900
    1.2000    1.2100    1.2200    1.2300    1.2400    1.2500    1.2600    1.2700
    1.2800    1.2900    1.3000    1.3100    1.3200    1.3300    1.3400    1.3500
    1.3600    1.3700    1.3800    1.3900    1.4000    1.4100    1.4200    1.4300
    1.4400    1.4500    1.4600    1.4700    1.4800    1.4900    1.5000    1.5100
    1.5200    1.5300    1.5400    1.5500    1.5600    1.5700    1.5800    1.5900
    1.6000    1.6100    1.6200    1.6300    1.6400    1.6500    1.6600    1.6700
    1.6800    1.6900    1.7000    1.7100    1.7200    1.7300    1.7400    1.7500
    1.7600    1.7700    1.7800    1.7900    1.8000    1.8100    1.8200    1.8300
    1.8400    1.8500    1.8600    1.8700    1.8800    1.8900    1.9000    1.9100
    1.9200    1.9300    1.9400    1.9500    1.9600    1.9700    1.9800    1.9900
    2.0000    2.0100    2.0200    2.0300    2.0400    2.0500    2.0600    2.0700
    2.0800    2.0900    2.1000    2.1100    2.1200    2.1300    2.1400    2.1500
    2.1600    2.1700    2.1800    2.1900    2.2000    2.2100    2.2200    2.2300
    2.2400    2.2500    2.2600    2.2700    2.2800    2.2900    2.3000    2.3100
    2.3200    2.3300    2.3400    2.3500    2.3600    2.3700    2.3800    2.3900
    2.4000    2.4100    2.4200    2.4300    2.4400    2.4500    2.4600    2.4700
    2.4800    2.4900    2.5000    2.5100    2.5200    2.5300    2.5400    2.5500
    2.5600    2.5700    2.5800    2.5900    2.6000    2.6100    2.6200    2.6300
    2.6400    2.6500    2.6600    2.6700    2.6800    2.6900    2.7000    2.7100
    2.7200    2.7300    2.7400    2.7500    2.7600    2.7700    2.7800    2.7900
    2.8000    2.8100    2.8200    2.8300    2.8400    2.8500    2.8600    2.8700
    2.8800    2.8900    2.9000    2.9100    2.9200    2.9300    2.9400    2.9500
    2.9600    2.9700    2.9800    2.9900    3.0000    3.0100    3.0200    3.0300
    3.0400    3.0500    3.0600    3.0700    3.0800    3.0900    3.1000    3.1100
    3.1200    3.1300    3.1400    3.1500    3.1600    3.1700    3.1800    3.1900
    3.2000    3.2100    3.2200    3.2300    3.2400    3.2500    3.2600    3.2700
    3.2800    3.2900    3.3000    3.3100    3.3200    3.3300    3.3400    3.3500
    3.3600    3.3700    3.3800    3.3900    3.4000    3.4100    3.4200    3.4300
    3.4400    3.4500    3.4600    3.4700    3.4800    3.4900    3.5000    3.5100
    3.5200    3.5300    3.5400    3.5500    3.5600    3.5700    3.5800    3.5900
    3.6000    3.6100    3.6200    3.6300    3.6400    3.6500    3.6600    3.6700
    3.6800    3.6900    3.7000    3.7100    3.7200    3.7300    3.7400    3.7500
    3.7600    3.7700    3.7800    3.7900    3.8000    3.8100    3.8200    3.8300
    3.8400    3.8500    3.8600    3.8700    3.8800    3.8900    3.9000    3.9100
    3.9200    3.9300    3.9400    3.9500    3.9600    3.9700    3.9800    3.9900
    4.0000    4.0100    4.0200    4.0300    4.0400    4.0500    4.0600    4.0700
    4.0800    4.0900    4.1000    4.1100    4.1200    4.1300    4.1400    4.1500
    4.1600    4.1700    4.1800    4.1900    4.2000    4.2100    4.2200    4.2300
    4.2400    4.2500    4.2600    4.2700    4.2800    4.2900    4.3000    4.3100
    4.3200    4.3300    4.3400    4.3500    4.3600    4.3700    4.3800    4.3900
    4.4000    4.4100    4.4200    4.4300    4.4400    4.4500    4.4600    4.4700
    4.4800    4.4900    4.5000    4.5100    4.5200    4.5300    4.5400    4.5500
    4.5600    4.5700    4.5800    4.5900    4.6000    4.6100    4.6200    4.6300
    4.6400    4.6500    4.6600    4.6700    4.6800    4.6900    4.7000    4.7100
    4.7200    4.7300    4.7400    4.7500    4.7600    4.7700    4.7800    4.7900
    4.8000    4.8100    4.8200    4.8300    4.8400    4.8500    4.8600    4.8700
    4.8800    4.8900    4.9000    4.9100    4.9200    4.9300    4.9400    4.9500
    4.9600    4.9700    4.9800    4.9900    5.0000    5.0100    5.0200    5.0300
    5.0400    5.0500    5.0600    5.0700    5.0800    5.0900    5.1000    5.1100
    5.1200    5.1300    5.1400    5.1500    5.1600    5.1700    5.1800    5.1900
    5.2000    5.2100    5.2200    5.2300    5.2400    5.2500    5.2600    5.2700
    5.2800    5.2900    5.3000    5.3100    5.3200    5.3300    5.3400    5.3500
    5.3600    5.3700    5.3800    5.3900    5.4000    5.4100    5.4200    5.4300
    5.4400    5.4500    5.4600    5.4700    5.4800    5.4900    5.5000    5.5100
    5.5200    5.5300    5.5400    5.5500    5.5600    5.5700    5.5800    5.5900
    5.6000    5.6100    5.6200    5.6300    5.6400    5.6500    5.6600    5.6700
    5.6800    5.6900    5.7000    5.7100    5.7200    5.7300    5.7400    5.7500
    5.7600    5.7700    5.7800    5.7900    5.8000    5.8100    5.8200    5.8300
    5.8400    5.8500    5.8600    5.8700    5.8800    5.8900    5.9000    5.9100
    5.9200    5.9300    5.9400    5.9500    5.9600    5.9700    5.9800    5.9900
   </PP_R>
   <PP_RAB type="real"  size=" 600" columns="8">
    0.0100    0.0100    0.0100    0.0100    0.0100    0.0100    0.0100    0.0100
    0.0100    0.0100    0.0100    0.0100    0.0100    0.0100    0.0100    0.0100
    0.0100    0.0100    0.0100    0.0100    0.0100    0.0100    0.0100    0.0100
    0.0100    0.0100    0.0100    0.0100    0.0100    0.0100    0.0100    0.0100
    0.0100    0.0100    0.0100    0.0100    0.0100    0.0100    0.0100    0.0100
    0.0100    0.0100    0.0100    0.0100    0.0100    0.0100    0.0100    0.0100
    0.0100    0.0100    0.0100    0.0100    0.0100    0.0100    0.0100    0.0100
    0.0100    0.0100    0.0100    0.0100    0.0100    0.0100    0.0100    0.0100
    0.0100    0.0100    0.0100    0.0100    0.0100    0.0100    0.0100    0.0100
    0.0100    0.0100    0.0100    0.0100    0.0100    0.0100    0.0100    0.0100
    0.0100    0.0100    0.0100    0.0100    0.0100    0.0100    0.0100    0.0100
    0.0100    0.0100    0.0100    0.0100    0.0100    0.0100    0.0100    0.0100
    0.0100    0.0100    0.0100    0.0100    0.0100    0.0100    0.0100    0.0100
    0.0100    0.0100    0.0100    0.0100    0.0100    0.0100    0.0100    0.0100
    0.0100    0.0100    0.0100    0.0100    0.0100    0.0100    0.0100    0.0100
    0.0100    0.0100    0.0100    0.0100    0.0100    0.0100    0.0100    0.0100
    0.0100    0.0100    0.0100    0.0100    0.0100    0.0100    0.0100    0.0100
    0.0100    0.0100    0.0100    0.0100    0.0100    0.0100    0.0100    0.0100
    0.0100    0.0100    0.0100    0.0100    0.0100    0.0100    0.0100    0.0100
    0.0100    0.0100    0.0100    0.0100    0.0100    0.0100    0.0100    0.0100
    0.0100    0.0100    0.0100    0.0100    0.0100    0.0100    0.0100    0.0100
    0.0100    0.0100    0.0100    0.0100    0.0100    0.0100    0.0100    0.0100
    0.0100    0.0100    0.0100    0.0100    0.0100    0.0100    0.0100    0.0100
    0.0100    0.0100    0.0100    0.0100    0.0100    0.0100    0.0100    0.0100
    0.0100    0.0100    0.0100    0.0100    0.0100    0.0100    0.0100    0.0100
    0.0100    0.0100    0.0100    0.0100    0.0100    0.0100    0.0100    0.0100
    0.0100    0.0100    0.0100    0.0100    0.0100    0.0100    0.0100    0.0100
    0.0100    0.0100    0.0100    0.0100    0.0100    0.0100    0.0100    0.0100
    0.0100    0.0100    0.0100    0.0100    0.0100    0.0100    0.0100    0.0100
    0.0100    0.0100    0.0100    0.0100    0.0100    0.0100    0.0100    0.0100
    0.0100    0.0100    0.0100    0.0100    0.0100    0.0100    0.0100    0.0100
    0.0100    0.0100    0.0100    0.0100    0.0100    0.0100    0.0100    0.0100
    0.0100    0.0100    0.0100    0.0100    0.0100    0.0100    0.0100    0.0100
    0.0100    0.0100    0.0100    0.0100    0.0100    0.0100    0.0100    0.0100
    0.0100    0.0100    0.0100    0.0100    0.0100    0.0100    0.0100    0.0100
    0.0100    0.0100    0.0100    0.0100    0.0100    0.0100    0.0100    0.0100
    0.0100    0.0100    0.0100    0.0100    0.0100    0.0100    0.0100    0.0100
    0.0100    0.0100    0.0100    0.0100    0.0100    0.0100    0.0100    0.0100
    0.0100    0.0100    0.0100    0.0100    0.0100    0.0100    0.0100    0.0100
    0.0100    0.0100    0.0100    0.0100    0.0100    0.0100    0.0100    0.0100
    0.0100    0.0100    0.0100    0.0100    0.0100    0.0100    0.0100    0.0100
    0.0100    0.0100    0.0100    0.0100    0.0100    0.0100    0.0100    0.0100
    0.0100    0.0100    0.0100    0.0100    0.0100    0.0100    0.0100    0.0100
    0.0100    0.0100    0.0100    0.0100    0.0100    0.0100    0.0100    0.0100
    0.0100    0.0100    0.0100    0.0100    0.0100    0.0100    0.0100    0.0100
    0.0100    0.0100    0.0100    0.0100    0.0100    0.0100    0.0100    0.0100
    0.0100    0.0100    0.0100    0.0100    0.0100    0.0100    0.0100    0.0100
    0.0100    0.0100    0.0100    0.0100    0.0100    0.0100    0.0100    0.0100
    0.0100    0.0100    0.0100    0.0100    0.0100    0.0100    0.0100    0.0100
    0.0100    0.0100    0.0100    0.0100    0.0100    0.0100    0.0100    0.0100
    0.0100    0.0100    0.0100    0.0100    0.0100    0.0100    0.0100    0.0100
    0.0100    0.0100    0.0100    0.0100    0.0100    0.0100    0.0100    0.0100
    0.0100    0.0100    0.0100    0.0100    0.0100    0.0100    0.0100    0.0100
    0.0100    0.0100    0.0100    0.0100    0.0100    0.0100    0.0100    0.0100
    0.0100    0.0100    0.0100    0.0100    0.0100    0.0100    0.0100    0.0100
    0.0100    0.0100    0.0100    0.0100    0.0100    0.0100    0.0100    0.0100
    0.0100    0.0100    0.0100    0.0100    0.0100    0.0100    0.0100    0.0100
    0.0100    0.0100    0.0100    0.0100    0.0100    0.0100    0.0100    0.0100
    0.0100    0.0100    0.0100    0.0100    0.0100    0.0100    0.0100    0.0100
    0.0100    0.0100    0.0100    0.0100    0.0100    0.0100    0.0100    0.0100
    0.0100    0.0100    0.0100    0.0100    0.0100    0.0100    0.0100    0.0100
    0.0100    0.0100    0.0100    0.0100    0.0100    0.0100    0.0100    0.0100
    0.0100    0.0100    0.0100    0.0100    0.0100    0.0100    0.0100    0.0100
    0.0100    0.0100    0.0100    0.0100    0.0100    0.0100    0.0100    0.0100
    0.0100    0.0100    0.0100    0.0100    0.0100    0.0100    0.0100    0.0100
    0.0100    0.0100    0.0100    0.0100    0.0100    0.0100    0.0100    0.0100
    0.0100    0.0100    0.0100    0.0100    0.0100    0.0100    0.0100    0.0100
    0.0100    0.0100    0.0100    0.0100    0.0100    0.0100    0.0100    0.0100
    0.0100    0.0100    0.0100    0.0100    0.0100    0.0100    0.0100    0.0100
    0.0100    0.0100    0.0100    0.0100    0.0100    0.0100    0.0100    0.0100
    0.0100    0.0100    0.0100    0.0100    0.0100    0.0100    0.0100    0.0100
    0.0100    0.0100    0.0100    0.0100    0.0100    0.0100    0.0100    0.0100
    0.0100    0.0100    0.0100    0.0100    0.0100    0.0100    0.0100    0.0100
    0.0100    0.0100    0.0100    0.0100    0.0100    0.0100    0.0100    0.0100
    0.0100    0.0100    0.0100    0.0100    0.0100    0.0100    0.0100    0.0100
   </PP_RAB>
 </PP_MESH>
  <PP_LOCAL type="real"  size=" 600" columns="4">
   -4.5184651714E+01   -4.5182958763E+01   -4.5177903940E+01   -4.5169460472E+01
   -4.5157601589E+01   -4.5142292303E+01   -4.5123491639E+01   -4.5101155139E+01
   -4.5075237441E+01   -4.5045694733E+01   -4.5012486949E+01   -4.4975579572E+01
   -4.4934944991E+01   -4.4890563392E+01   -4.4842423200E+01   -4.4790521112E+01
   -4.4734861818E+01   -4.4675457439E+01   -4.4612326810E+01   -4.4545494634E+01
   -4.4474990600E+01   -4.4400848497E+01   -4.4323105366E+01   -4.4241800722E+01
   -4.4156975850E+01   -4.4068673200E+01   -4.3976935873E+01   -4.3881807189E+01
   -4.3783330353E+01   -4.3681548189E+01   -4.3576502945E+01   -4.3468236159E+01
   -4.3356788581E+01   -4.3242200125E+01   -4.3124509870E+01   -4.3003756086E+01
   -4.2879976279E+01   -4.2753207259E+01   -4.2623485222E+01   -4.2490845836E+01
   -4.2355324343E+01   -4.2216955658E+01   -4.2075774475E+01   -4.1931815374E+01
   -4.1785112922E+01   -4.1635701780E+01   -4.1483616803E+01   -4.1328893134E+01
   -4.1171566301E+01   -4.1011672305E+01   -4.0849247704E+01   -4.0684329694E+01
   -4.0516956174E+01   -4.0347165835E+01   -4.0174998197E+01   -4.0000493687E+01
   -3.9823693684E+01   -3.9644640556E+01   -3.9463377721E+01   -3.9279949660E+01
   -3.9094401960E+01   -3.8906781345E+01   -3.8717135651E+01   -3.8525513917E+01
   -3.8331966322E+01   -3.8136544199E+01   -3.7939300088E+01   -3.7740287670E+01
   -3.7539561763E+01   -3.7337178332E+01   -3.7133194470E+01   -3.6927668349E+01
   -3.6720659208E+01   -3.6512227315E+01   -3.6302433941E+01   -3.6091341334E+01
   -3.5879012659E+01   -3.5665511961E+01   -3.5450904121E+01   -3.5235254811E+01
   -3.5018630442E+01   -3.4801098116E+01   -3.4582725567E+01   -3.4363581112E+01
   -3.4143733592E+01   -3.3923252314E+01   -3.3702206996E+01   -3.3480667701E+01
   -3.3258704782E+01   -3.3036388817E+01   -3.2813790550E+01   -3.2590980825E+01
   -3.2368030526E+01   -3.2145010509E+01   -3.1921991543E+01   -3.1699044245E+01
   -3.1476239013E+01   -3.1253645978E+01   -3.1031334907E+01   -3.0809375161E+01
   -3.0587835624E+01   -3.0366784645E+01   -3.0146289970E+01   -2.9926418704E+01
   -2.9707237217E+01   -2.9488811038E+01   -2.9271204864E+01   -2.9054482479E+01
   -2.8838706746E+01   -2.8623939451E+01   -2.8410241193E+01   -2.8197671460E+01
   -2.7986288573E+01   -2.7776149643E+01   -2.7567310175E+01   -2.7359824401E+01
   -2.7153745232E+01   -2.6949124011E+01   -2.6746010260E+01   -2.6544452036E+01
   -2.6344496095E+01   -2.6146186774E+01   -2.5949566856E+01   -2.5754677682E+01
   -2.5561558233E+01   -2.5370245434E+01   -2.5180774785E+01   -2.4993179340E+01
   -2.4807489739E+01   -2.4623735290E+01   -2.4441942477E+01   -2.4262135291E+01
   -2.4084336559E+01   -2.3908565478E+01   -2.3734839179E+01   -2.3563173553E+01
   -2.3393579940E+01   -2.3226068748E+01   -2.3060647518E+01   -2.2897320121E+01
   -2.2736089973E+01   -2.2576955278E+01   -2.2419913126E+01   -2.2264957809E+01
   -2.2112079266E+01   -2.1961267675E+01   -2.1812506523E+01   -2.1665779552E+01
   -2.1521065854E+01   -2.1378341779E+01   -2.1237582010E+01   -2.1098755374E+01
   -2.0961831866E+01   -2.0826773390E+01   -2.0693543575E+01   -2.0562102894E+01
   -2.0432412973E+01   -2.0304436402E+01   -2.0178136394E+01   -2.0053476897E+01
   -1.9930422869E+01   -1.9808939524E+01   -1.9688993499E+01   -1.9570551286E+01
   -1.9453581144E+01   -1.9338050869E+01   -1.9223930280E+01   -1.9111188509E+01
   -1.8999796880E+01   -1.8889725888E+01   -1.8780948301E+01   -1.8673436010E+01
   -1.8567163149E+01   -1.8462103041E+01   -1.8358231102E+01   -1.8255522115E+01
   -1.8153952682E+01   -1.8053499078E+01   -1.7954138987E+01   -1.7855850196E+01
   -1.7758611370E+01   -1.7662401827E+01   -1.7567201110E+01   -1.7472990083E+01
   -1.7379749075E+01   -1.7287460500E+01   -1.7196105399E+01   -1.7105667538E+01
   -1.7016129203E+01   -1.6927474855E+01   -1.6839688350E+01   -1.6752754641E+01
   -1.6666659253E+01   -1.6581387529E+01   -1.6496926695E+01   -1.6413262471E+01
   -1.6330383396E+01   -1.6248276584E+01   -1.6166930797E+01   -1.6086334963E+01
   -1.6006477933E+01   -1.5927350355E+01   -1.5848941431E+01   -1.5771242800E+01
   -1.5694245127E+01   -1.5617939923E+01   -1.5542319568E+01   -1.5467375473E+01
   -1.5393101128E+01   -1.5319488957E+01   -1.5246532295E+01   -1.5174224891E+01
   -1.5102559906E+01   -1.5031531830E+01   -1.4961134499E+01   -1.4891362205E+01
   -1.4822209536E+01   -1.4753670710E+01   -1.4685740555E+01   -1.4618413671E+01
   -1.4551684703E+01   -1.4485548403E+01   -1.4419999510E+01   -1.4355032670E+01
   -1.4290642556E+01   -1.4226823912E+01   -1.4163571160E+01   -1.4100878928E+01
   -1.4038741702E+01   -1.3977153728E+01   -1.3916109530E+01   -1.3855603239E+01
   -1.3795628956E+01   -1.3736181047E+01   -1.3677253322E+01   -1.3618839797E+01
   -1.3560934539E+01   -1.3503531266E+01   -1.3446623866E+01   -1.3390206188E+01
   -1.3334271943E+01   -1.3278814905E+01   -1.3223828848E+01   -1.3169307545E+01
   -1.3115244695E+01   -1.3061634155E+01   -1.3008469830E+01   -1.2955745405E+01
   -1.2903454967E+01   -1.2851592632E+01   -1.2800152154E+01   -1.2749127967E+01
   -1.2698514479E+01   -1.2648305628E+01   -1.2598496243E+01   -1.2549081112E+01
   -1.2500054470E+01   -1.2451411535E+01   -1.2403147530E+01   -1.2355257067E+01
   -1.2307735724E+01   -1.2260579224E+01   -1.2213782690E+01   -1.2167341955E+01
   -1.2121253223E+01   -1.2075512225E+01   -1.2030114945E+01   -1.1985057821E+01
   -1.1940336973E+01   -1.1895948519E+01   -1.1851888995E+01   -1.1808154738E+01
   -1.1764741871E+01   -1.1721647158E+01   -1.1678867118E+01   -1.1636398040E+01
   -1.1594236740E+01   -1.1552379961E+01   -1.1510824249E+01   -1.1469566370E+01
   -1.1428603296E+01   -1.1387931815E+01   -1.1347548627E+01   -1.1307450930E+01
   -1.1267635707E+01   -1.1228099740E+01   -1.1188840280E+01   -1.1149854503E+01
   -1.1111139432E+01   -1.1072692195E+01   -1.1034510204E+01   -1.0996590719E+01
   -1.0958930775E+01   -1.0921527961E+01   -1.0884379680E+01   -1.0847483205E+01
   -1.0810835958E+01   -1.0774435581E+01   -1.0738279582E+01   -1.0702365261E+01
   -1.0666690421E+01   -1.0631252709E+01   -1.0596049668E+01   -1.0561078890E+01
   -1.0526338261E+01   -1.0491825518E+01   -1.0457538234E+01   -1.0423474318E+01
   -1.0389631675E+01   -1.0356008134E+01   -1.0322601353E+01   -1.0289409475E+01
   -1.0256430441E+01   -1.0223662116E+01   -1.0191102412E+01   -1.0158749507E+01
   -1.0126601438E+01   -1.0094656116E+01   -1.0062911673E+01   -1.0031366325E+01
   -1.0000018201E+01   -9.9688652675E+00   -9.9379058433E+00   -9.9071381866E+00
   -9.8765605140E+00   -9.8461708546E+00   -9.8159676826E+00   -9.7859493057E+00
   -9.7561140085E+00   -9.7264599337E+00   -9.6969856362E+00   -9.6676894947E+00
   -9.6385698611E+00   -9.6096249886E+00   -9.5808534933E+00   -9.5522538294E+00
   -9.5238244214E+00   -9.4955636084E+00   -9.4674700718E+00   -9.4395423379E+00
   -9.4117789096E+00   -9.3841781877E+00   -9.3567389237E+00   -9.3294597125E+00
   -9.3023391406E+00   -9.2753756484E+00   -9.2485680615E+00   -9.2219150403E+00
   -9.1954152453E+00   -9.1690671798E+00   -9.1428697032E+00   -9.1168215530E+00
   -9.0909214520E+00   -9.0651679969E+00   -9.0395600349E+00   -9.0140963935E+00
   -8.9887758550E+00   -8.9635971148E+00   -8.9385589889E+00   -8.9136603979E+00
   -8.8889001811E+00   -8.8642771381E+00   -8.8397900362E+00   -8.8154378919E+00
   -8.7912195983E+00   -8.7671340485E+00   -8.7431799939E+00   -8.7193565007E+00
   -8.6956625284E+00   -8.6720970219E+00   -8.6486588433E+00   -8.6253469707E+00
   -8.6021604725E+00   -8.5790983426E+00   -8.5561595604E+00   -8.5333430032E+00
   -8.5106478466E+00   -8.4880731313E+00   -8.4656178983E+00   -8.4432810977E+00
   -8.4210618281E+00   -8.3989592341E+00   -8.3769724013E+00   -8.3551004055E+00
   -8.3333422115E+00   -8.3116970799E+00   -8.2901641388E+00   -8.2687425162E+00
   -8.2474312729E+00   -8.2262295473E+00   -8.2051365836E+00   -8.1841515506E+00
   -8.1632736171E+00   -8.1425018392E+00   -8.1218355039E+00   -8.1012738441E+00
   -8.0808160672E+00   -8.0604613650E+00   -8.0402088466E+00   -8.0200578739E+00
   -8.0000076915E+00   -7.9800575437E+00   -7.9602066278E+00   -7.9404541614E+00
   -7.9207995098E+00   -7.9012419525E+00   -7.8817807692E+00   -7.8624151703E+00
   -7.8431444608E+00   -7.8239680149E+00   -7.8048851458E+00   -7.7858951665E+00
   -7.7669973078E+00   -7.7481909414E+00   -7.7294754568E+00   -7.7108501992E+00
   -7.6923145136E+00   -7.6738676571E+00   -7.6555090492E+00   -7.6372381006E+00
   -7.6190541873E+00   -7.6009566848E+00   -7.5829448821E+00   -7.5650182282E+00
   -7.5471761618E+00   -7.5294180875E+00   -7.5117434103E+00   -7.4941514564E+00
   -7.4766416874E+00   -7.4592135755E+00   -7.4418665530E+00   -7.4246000527E+00
   -7.4074134432E+00   -7.3903061830E+00   -7.3732777828E+00   -7.3563277016E+00
   -7.3394553985E+00   -7.3226602898E+00   -7.3059418158E+00   -7.2892995307E+00
   -7.2727329188E+00   -7.2562414642E+00   -7.2398246361E+00   -7.2234818428E+00
   -7.2072126861E+00   -7.1910166742E+00   -7.1748933153E+00   -7.1588421176E+00
   -7.1428625008E+00   -7.1269540620E+00   -7.1111163505E+00   -7.0953488974E+00
   -7.0796512338E+00   -7.0640228418E+00   -7.0484632551E+00   -7.0329720829E+00
   -7.0175488781E+00   -7.0021931937E+00   -6.9869045790E+00   -6.9716824942E+00
   -6.9565266098E+00   -6.9414364996E+00   -6.9264117374E+00   -6.9114518969E+00
   -6.8965564979E+00   -6.8817251324E+00   -6.8669574401E+00   -6.8522530149E+00
   -6.8376114502E+00   -6.8230323399E+00   -6.8085151836E+00   -6.7940596848E+00
   -6.7796654584E+00   -6.7653321168E+00   -6.7510592727E+00   -6.7368465050E+00
   -6.7226934040E+00   -6.7085996623E+00   -6.6945649105E+00   -6.6805887791E+00
   -6.6666708988E+00   -6.6528108394E+00   -6.6390082709E+00   -6.6252628735E+00
   -6.6115742952E+00   -6.5979421836E+00   -6.5843661867E+00   -6.5708458724E+00
   -6.5573809725E+00   -6.5439711615E+00   -6.5306161037E+00   -6.5173154633E+00
   -6.5040688994E+00   -6.4908759997E+00   -6.4777365263E+00   -6.4646501592E+00
   -6.4516165782E+00   -6.4386354633E+00   -6.4257064810E+00   -6.4128292538E+00
   -6.4000035494E+00   -6.3872290623E+00   -6.3745054876E+00   -6.3618325199E+00
   -6.3492098389E+00   -6.3366370879E+00   -6.3241140449E+00   -6.3116404190E+00
   -6.2992159191E+00   -6.2868402543E+00   -6.2745131225E+00   -6.2622341745E+00
   -6.2500032038E+00   -6.2378199330E+00   -6.2256840846E+00   -6.2135953812E+00
   -6.2015535443E+00   -6.1895582193E+00   -6.1776092199E+00   -6.1657062817E+00
   -6.1538491402E+00   -6.1420375309E+00   -6.1302711893E+00   -6.1185497864E+00
   -6.1068731181E+00   -6.0952409462E+00   -6.0836530186E+00   -6.0721090832E+00
   -6.0606088877E+00   -6.0491521370E+00   -6.0377385940E+00   -6.0263680525E+00
   -6.0150402721E+00   -6.0037550125E+00   -5.9925120331E+00   -5.9813110773E+00
   -5.9701518644E+00   -5.9590342240E+00   -5.9479579269E+00   -5.9369227437E+00
   -5.9259284453E+00   -5.9149748025E+00   -5.9040615277E+00   -5.8931884434E+00
   -5.8823553460E+00   -5.8715620170E+00   -5.8608082378E+00   -5.8500937900E+00
   -5.8394184330E+00   -5.8287819234E+00   -5.8181841025E+00   -5.8076247620E+00
   -5.7971036936E+00   -5.7866206890E+00   -5.7761755397E+00   -5.7657679863E+00
   -5.7553978595E+00   -5.7450649796E+00   -5.7347691480E+00   -5.7245101660E+00
   -5.7142878351E+00   -5.7041019509E+00   -5.6939522588E+00   -5.6838386315E+00
   -5.6737608796E+00   -5.6637188139E+00   -5.6537122448E+00   -5.6437409830E+00
   -5.6338048157E+00   -5.6239035363E+00   -5.6140370078E+00   -5.6042050496E+00
   -5.5944074810E+00   -5.5846441217E+00   -5.5749147909E+00   -5.5652192729E+00
   -5.5555573965E+00   -5.5459290197E+00   -5.5363339704E+00   -5.5267720764E+00
   -5.5172431656E+00   -5.5077470659E+00   -5.4982835640E+00   -5.4888525109E+00
   -5.4794537655E+00   -5.4700871635E+00   -5.4607525408E+00   -5.4514497333E+00
   -5.4421785769E+00   -5.4329388659E+00   -5.4237304618E+00   -5.4145532289E+00
   -5.4054070108E+00   -5.3962916510E+00   -5.3872069930E+00   -5.3781528803E+00
   -5.3691291194E+00   -5.3601355712E+00   -5.3511721104E+00   -5.3422385879E+00
  </PP_LOCAL>
 <PP_NONLOCAL>
   <PP_BETA.1
       type="real"
       size=" 600"
       columns="4"
       index="1"
       angular_momentum="0"
       cutoff_radius_index=" 266"
       cutoff_radius="    2.6500000000E+00" >
    0.0000000000E+00    5.1913517983E-02    1.0375575163E-01    1.5545553047E-01
    2.0694191157E-01    2.5814429284E-01    3.0899252585E-01    3.5941702788E-01
    4.0934889308E-01    4.5872000259E-01    5.0746313341E-01    5.5551206582E-01
    6.0280168927E-01    6.4926810645E-01    6.9484873551E-01    7.3948241011E-01
    7.8310947733E-01    8.2567189305E-01    8.6711331487E-01    9.0737919232E-01
    9.4641685411E-01    9.8417559252E-01    1.0206067445E+00    1.0556637697E+00
    1.0893023248E+00    1.1214803345E+00    1.1521580590E+00    1.1812981574E+00
    1.2088657472E+00    1.2348284603E+00    1.2591564941E+00    1.2818226593E+00
    1.3028024229E+00    1.3220739462E+00    1.3396181206E+00    1.3554185954E+00
    1.3694618049E+00    1.3817369874E+00    1.3922362013E+00    1.4009543373E+00
    1.4078891230E+00    1.4130411255E+00    1.4164137472E+00    1.4180132182E+00
    1.4178485825E+00    1.4159316803E+00    1.4122771247E+00    1.4069022741E+00
    1.3998271992E+00    1.3910746458E+00    1.3806699917E+00    1.3686411996E+00
    1.3550187676E+00    1.3398356671E+00    1.3231272878E+00    1.3049313686E+00
    1.2852879266E+00    1.2642391875E+00    1.2418294989E+00    1.2181052559E+00
    1.1931148097E+00    1.1669083702E+00    1.1395379383E+00    1.1110571617E+00
    1.0815212732E+00    1.0509869865E+00    1.0195123443E+00    9.8715665142E-01
    9.5398035684E-01    9.2004492140E-01    8.8541269111E-01    8.5014680136E-01
    8.1431104483E-01    7.7796975419E-01    7.4118766681E-01    7.0402978094E-01
    6.6656125944E-01    6.2884728956E-01    5.9095295419E-01    5.5294310297E-01
    5.1488222372E-01    4.7683431428E-01    4.3886275515E-01    4.0103018322E-01
    3.6339836677E-01    3.2602808216E-01    2.8897899239E-01    2.5230952789E-01
    2.1607676982E-01    1.8033633613E-01    1.4514227075E-01    1.1054693624E-01
    7.6600910083E-02    4.3352885086E-02    1.0849574140E-02   -2.0864380362E-02
   -5.1746492100E-02   -8.1756444053E-02   -1.1085635256E-01   -1.3901068254E-01
   -1.6618633837E-01   -1.9235273084E-01   -2.1748182794E-01   -2.4154814208E-01
   -2.6452887586E-01   -2.8640400817E-01   -3.0715615280E-01   -3.2677064112E-01
   -3.4523545445E-01   -3.6254140223E-01   -3.7868213291E-01   -3.9365393541E-01
   -4.0745575763E-01   -4.2008920305E-01   -4.3155877397E-01   -4.4187144820E-01
   -4.5103669477E-01   -4.5906658620E-01   -4.6597577440E-01   -4.7178119077E-01
   -4.7650198941E-01   -4.8015982519E-01   -4.8277837370E-01   -4.8438332848E-01
   -4.8500246732E-01   -4.8466537678E-01   -4.8340339343E-01   -4.8124954414E-01
   -4.7823828355E-01   -4.7440558294E-01   -4.6978862555E-01   -4.6442558895E-01
   -4.5835600364E-01   -4.5161987686E-01   -4.4425794693E-01   -4.3631209564E-01
   -4.2782367454E-01   -4.1883500884E-01   -4.0938846439E-01   -3.9952568737E-01
   -3.8928946722E-01   -3.7872067996E-01   -3.6786066552E-01   -3.5675015588E-01