<UPF version="2.0.1">
  <PP_INFO>

 This pseudopotential file has been produced using the code
 ONCVPSP  (Optimized Norm-Conservinng Vanderbilt PSeudopotential)
 scalar-relativistic version 3.0.0 10/10/2014 by D. R. Hamann
 The code is available through a link at URL www.mat-simresearch.com.
 Documentation with the package provides a full discription of the
 input data below.


 While it is not required under the terms of the GNU GPL, it is
 suggested that you cite D. R. Hamann, Phys. Rev. B 88, 085117 (2013)
 in any publication using these pseudopotentials.

    <PP_INPUTFILE>
# ATOM AND REFERENCE CONFIGURATION
# atsym  z   nc   nv     iexc    psfile
  Tc 43.00    6    4 -116133      upf
#
#   n    l    f        energy (Ha)
    1    0    2.00
    2    0    2.00
    2    1    6.00
    3    0    2.00
    3    1    6.00
    3    2   10.00
    4    0    2.00
    4    1    6.00
    5    0    2.00
    4    2    5.00
#
# PSEUDOPOTENTIAL AND OPTIMIZATION
# lmax
    2
#
#   l,   rc,     ep,   ncon, nbas, qcut
    0    2.43   -2.69    5    8    5.84
    1    2.58   -1.66    5    8    5.62
    2    2.68   -0.25    5    8    5.55
#
# LOCAL POTENTIAL
# lloc, lpopt,  rc(5),   dvloc0
    4    5      1.56       0.00
#
# VANDERBILT-KLEINMAN-BYLANDER PROJECTORs
# l, nproj, debl
    0    2    2.5076
    1    2    2.1374
    2    2    1.4589
#
# MODEL CORE CHARGE
# icmod, fcfact
    0    0.00
#
# LOG DERIVATIVE ANALYSIS
# epsh1, epsh2, depsh
   -5.00    3.00    0.02
#
# OUTPUT GRID
# rlmax, drl
    6.00    0.01
#
# TEST CONFIGURATIONS
# ncnf
    0
# nvcnf
#   n    l    f
    </PP_INPUTFILE>
  </PP_INFO>
  <!--                               -->
  <!-- END OF HUMAN READABLE SECTION -->
  <!--                               -->
    <PP_HEADER
       generated="Generated using ONCVPSP code by D. R. Hamann"
       author="anonymous"
       date="150603"
       comment=""
       element="Tc"
       pseudo_type="NC"
       relativistic="scalar"
       is_ultrasoft="F"
       is_paw="F"
       is_coulomb="F"
       has_so="F"
       has_wfc="F"
       has_gipaw="F"
       core_correction="F"
       functional="PBESOL"
       z_valence="   15.00"
       total_psenergy="  -8.01746435697E+01"
       rho_cutoff="   5.99000000000E+00"
       l_max="2"
       l_local="-1"
       mesh_size="   600"
       number_of_wfc="0"
       number_of_proj="6"/>
 <PP_MESH>
   <PP_R type="real"  size=" 600" columns="8">
    0.0000    0.0100    0.0200    0.0300    0.0400    0.0500    0.0600    0.0700
    0.0800    0.0900    0.1000    0.1100    0.1200    0.1300    0.1400    0.1500
    0.1600    0.1700    0.1800    0.1900    0.2000    0.2100    0.2200    0.2300
    0.2400    0.2500    0.2600    0.2700    0.2800    0.2900    0.3000    0.3100
    0.3200    0.3300    0.3400    0.3500    0.3600    0.3700    0.3800    0.3900
    0.4000    0.4100    0.4200    0.4300    0.4400    0.4500    0.4600    0.4700
    0.4800    0.4900    0.5000    0.5100    0.5200    0.5300    0.5400    0.5500
    0.5600    0.5700    0.5800    0.5900    0.6000    0.6100    0.6200    0.6300
    0.6400    0.6500    0.6600    0.6700    0.6800    0.6900    0.7000    0.7100
    0.7200    0.7300    0.7400    0.7500    0.7600    0.7700    0.7800    0.7900
    0.8000    0.8100    0.8200    0.8300    0.8400    0.8500    0.8600    0.8700
    0.8800    0.8900    0.9000    0.9100    0.9200    0.9300    0.9400    0.9500
    0.9600    0.9700    0.9800    0.9900    1.0000    1.0100    1.0200    1.0300
    1.0400    1.0500    1.0600    1.0700    1.0800    1.0900    1.1000    1.1100
    1.1200    1.1300    1.1400    1.1500    1.1600    1.1700    1.1800    1.1900
    1.2000    1.2100    1.2200    1.2300    1.2400    1.2500    1.2600    1.2700
    1.2800    1.2900    1.3000    1.3100    1.3200    1.3300    1.3400    1.3500
    1.3600    1.3700    1.3800    1.3900    1.4000    1.4100    1.4200    1.4300
    1.4400    1.4500    1.4600    1.4700    1.4800    1.4900    1.5000    1.5100
    1.5200    1.5300    1.5400    1.5500    1.5600    1.5700    1.5800    1.5900
    1.6000    1.6100    1.6200    1.6300    1.6400    1.6500    1.6600    1.6700
    1.6800    1.6900    1.7000    1.7100    1.7200    1.7300    1.7400    1.7500
    1.7600    1.7700    1.7800    1.7900    1.8000    1.8100    1.8200    1.8300
    1.8400    1.8500    1.8600    1.8700    1.8800    1.8900    1.9000    1.9100
    1.9200    1.9300    1.9400    1.9500    1.9600    1.9700    1.9800    1.9900
    2.0000    2.0100    2.0200    2.0300    2.0400    2.0500    2.0600    2.0700
    2.0800    2.0900    2.1000    2.1100    2.1200    2.1300    2.1400    2.1500
    2.1600    2.1700    2.1800    2.1900    2.2000    2.2100    2.2200    2.2300
    2.2400    2.2500    2.2600    2.2700    2.2800    2.2900    2.3000    2.3100
    2.3200    2.3300    2.3400    2.3500    2.3600    2.3700    2.3800    2.3900
    2.4000    2.4100    2.4200    2.4300    2.4400    2.4500    2.4600    2.4700
    2.4800    2.4900    2.5000    2.5100    2.5200    2.5300    2.5400    2.5500
    2.5600    2.5700    2.5800    2.5900    2.6000    2.6100    2.6200    2.6300
    2.6400    2.6500    2.6600    2.6700    2.6800    2.6900    2.7000    2.7100
    2.7200    2.7300    2.7400    2.7500    2.7600    2.7700    2.7800    2.7900
    2.8000    2.8100    2.8200    2.8300    2.8400    2.8500    2.8600    2.8700
    2.8800    2.8900    2.9000    2.9100    2.9200    2.9300    2.9400    2.9500
    2.9600    2.9700    2.9800    2.9900    3.0000    3.0100    3.0200    3.0300
    3.0400    3.0500    3.0600    3.0700    3.0800    3.0900    3.1000    3.1100
    3.1200    3.1300    3.1400    3.1500    3.1600    3.1700    3.1800    3.1900
    3.2000    3.2100    3.2200    3.2300    3.2400    3.2500    3.2600    3.2700
    3.2800    3.2900    3.3000    3.3100    3.3200    3.3300    3.3400    3.3500
    3.3600    3.3700    3.3800    3.3900    3.4000    3.4100    3.4200    3.4300
    3.4400    3.4500    3.4600    3.4700    3.4800    3.4900    3.5000    3.5100
    3.5200    3.5300    3.5400    3.5500    3.5600    3.5700    3.5800    3.5900
    3.6000    3.6100    3.6200    3.6300    3.6400    3.6500    3.6600    3.6700
    3.6800    3.6900    3.7000    3.7100    3.7200    3.7300    3.7400    3.7500
    3.7600    3.7700    3.7800    3.7900    3.8000    3.8100    3.8200    3.8300
    3.8400    3.8500    3.8600    3.8700    3.8800    3.8900    3.9000    3.9100
    3.9200    3.9300    3.9400    3.9500    3.9600    3.9700    3.9800    3.9900
    4.0000    4.0100    4.0200    4.0300    4.0400    4.0500    4.0600    4.0700
    4.0800    4.0900    4.1000    4.1100    4.1200    4.1300    4.1400    4.1500
    4.1600    4.1700    4.1800    4.1900    4.2000    4.2100    4.2200    4.2300
    4.2400    4.2500    4.2600    4.2700    4.2800    4.2900    4.3000    4.3100
    4.3200    4.3300    4.3400    4.3500    4.3600    4.3700    4.3800    4.3900
    4.4000    4.4100    4.4200    4.4300    4.4400    4.4500    4.4600    4.4700
    4.4800    4.4900    4.5000    4.5100    4.5200    4.5300    4.5400    4.5500
    4.5600    4.5700    4.5800    4.5900    4.6000    4.6100    4.6200    4.6300
    4.6400    4.6500    4.6600    4.6700    4.6800    4.6900    4.7000    4.7100
    4.7200    4.7300    4.7400    4.7500    4.7600    4.7700    4.7800    4.7900
    4.8000    4.8100    4.8200    4.8300    4.8400    4.8500    4.8600    4.8700
    4.8800    4.8900    4.9000    4.9100    4.9200    4.9300    4.9400    4.9500
    4.9600    4.9700    4.9800    4.9900    5.0000    5.0100    5.0200    5.0300
    5.0400    5.0500    5.0600    5.0700    5.0800    5.0900    5.1000    5.1100
    5.1200    5.1300    5.1400    5.1500    5.1600    5.1700    5.1800    5.1900
    5.2000    5.2100    5.2200    5.2300    5.2400    5.2500    5.2600    5.2700
    5.2800    5.2900    5.3000    5.3100    5.3200    5.3300    5.3400    5.3500
    5.3600    5.3700    5.3800    5.3900    5.4000    5.4100    5.4200    5.4300
    5.4400    5.4500    5.4600    5.4700    5.4800    5.4900    5.5000    5.5100
    5.5200    5.5300    5.5400    5.5500    5.5600    5.5700    5.5800    5.5900
    5.6000    5.6100    5.6200    5.6300    5.6400    5.6500    5.6600    5.6700
    5.6800    5.6900    5.7000    5.7100    5.7200    5.7300    5.7400    5.7500
    5.7600    5.7700    5.7800    5.7900    5.8000    5.8100    5.8200    5.8300
    5.8400    5.8500    5.8600    5.8700    5.8800    5.8900    5.9000    5.9100
    5.9200    5.9300    5.9400    5.9500    5.9600    5.9700    5.9800    5.9900
   </PP_R>
   <PP_RAB type="real"  size=" 600" columns="8">
    0.0100    0.0100    0.0100    0.0100    0.0100    0.0100    0.0100    0.0100
    0.0100    0.0100    0.0100    0.0100    0.0100    0.0100    0.0100    0.0100
    0.0100    0.0100    0.0100    0.0100    0.0100    0.0100    0.0100    0.0100
    0.0100    0.0100    0.0100    0.0100    0.0100    0.0100    0.0100    0.0100
    0.0100    0.0100    0.0100    0.0100    0.0100    0.0100    0.0100    0.0100
    0.0100    0.0100    0.0100    0.0100    0.0100    0.0100    0.0100    0.0100
    0.0100    0.0100    0.0100    0.0100    0.0100    0.0100    0.0100    0.0100
    0.0100    0.0100    0.0100    0.0100    0.0100    0.0100    0.0100    0.0100
    0.0100    0.0100    0.0100    0.0100    0.0100    0.0100    0.0100    0.0100
    0.0100    0.0100    0.0100    0.0100    0.0100    0.0100    0.0100    0.0100
    0.0100    0.0100    0.0100    0.0100    0.0100    0.0100    0.0100    0.0100
    0.0100    0.0100    0.0100    0.0100    0.0100    0.0100    0.0100    0.0100
    0.0100    0.0100    0.0100    0.0100    0.0100    0.0100    0.0100    0.0100
    0.0100    0.0100    0.0100    0.0100    0.0100    0.0100    0.0100    0.0100
    0.0100    0.0100    0.0100    0.0100    0.0100    0.0100    0.0100    0.0100
    0.0100    0.0100    0.0100    0.0100    0.0100    0.0100    0.0100    0.0100
    0.0100    0.0100    0.0100    0.0100    0.0100    0.0100    0.0100    0.0100
    0.0100    0.0100    0.0100    0.0100    0.0100    0.0100    0.0100    0.0100
    0.0100    0.0100    0.0100    0.0100    0.0100    0.0100    0.0100    0.0100
    0.0100    0.0100    0.0100    0.0100    0.0100    0.0100    0.0100    0.0100
    0.0100    0.0100    0.0100    0.0100    0.0100    0.0100    0.0100    0.0100
    0.0100    0.0100    0.0100    0.0100    0.0100    0.0100    0.0100    0.0100
    0.0100    0.0100    0.0100    0.0100    0.0100    0.0100    0.0100    0.0100
    0.0100    0.0100    0.0100    0.0100    0.0100    0.0100    0.0100    0.0100
    0.0100    0.0100    0.0100    0.0100    0.0100    0.0100    0.0100    0.0100
    0.0100    0.0100    0.0100    0.0100    0.0100    0.0100    0.0100    0.0100
    0.0100    0.0100    0.0100    0.0100    0.0100    0.0100    0.0100    0.0100
    0.0100    0.0100    0.0100    0.0100    0.0100    0.0100    0.0100    0.0100
    0.0100    0.0100    0.0100    0.0100    0.0100    0.0100    0.0100    0.0100
    0.0100    0.0100    0.0100    0.0100    0.0100    0.0100    0.0100    0.0100
    0.0100    0.0100    0.0100    0.0100    0.0100    0.0100    0.0100    0.0100
    0.0100    0.0100    0.0100    0.0100    0.0100    0.0100    0.0100    0.0100
    0.0100    0.0100    0.0100    0.0100    0.0100    0.0100    0.0100    0.0100
    0.0100    0.0100    0.0100    0.0100    0.0100    0.0100    0.0100    0.0100
    0.0100    0.0100    0.0100    0.0100    0.0100    0.0100    0.0100    0.0100
    0.0100    0.0100    0.0100    0.0100    0.0100    0.0100    0.0100    0.0100
    0.0100    0.0100    0.0100    0.0100    0.0100    0.0100    0.0100    0.0100
    0.0100    0.0100    0.0100    0.0100    0.0100    0.0100    0.0100    0.0100
    0.0100    0.0100    0.0100    0.0100    0.0100    0.0100    0.0100    0.0100
    0.0100    0.0100    0.0100    0.0100    0.0100    0.0100    0.0100    0.0100
    0.0100    0.0100    0.0100    0.0100    0.0100    0.0100    0.0100    0.0100
    0.0100    0.0100    0.0100    0.0100    0.0100    0.0100    0.0100    0.0100
    0.0100    0.0100    0.0100    0.0100    0.0100    0.0100    0.0100    0.0100
    0.0100    0.0100    0.0100    0.0100    0.0100    0.0100    0.0100    0.0100
    0.0100    0.0100    0.0100    0.0100    0.0100    0.0100    0.0100    0.0100
    0.0100    0.0100    0.0100    0.0100    0.0100    0.0100    0.0100    0.0100
    0.0100    0.0100    0.0100    0.0100    0.0100    0.0100    0.0100    0.0100
    0.0100    0.0100    0.0100    0.0100    0.0100    0.0100    0.0100    0.0100
    0.0100    0.0100    0.0100    0.0100    0.0100    0.0100    0.0100    0.0100
    0.0100    0.0100    0.0100    0.0100    0.0100    0.0100    0.0100    0.0100
    0.0100    0.0100    0.0100    0.0100    0.0100    0.0100    0.0100    0.0100
    0.0100    0.0100    0.0100    0.0100    0.0100    0.0100    0.0100    0.0100
    0.0100    0.0100    0.0100    0.0100    0.0100    0.0100    0.0100    0.0100
    0.0100    0.0100    0.0100    0.0100    0.0100    0.0100    0.0100    0.0100
    0.0100    0.0100    0.0100    0.0100    0.0100    0.0100    0.0100    0.0100
    0.0100    0.0100    0.0100    0.0100    0.0100    0.0100    0.0100    0.0100
    0.0100    0.0100    0.0100    0.0100    0.0100    0.0100    0.0100    0.0100
    0.0100    0.0100    0.0100    0.0100    0.0100    0.0100    0.0100    0.0100
    0.0100    0.0100    0.0100    0.0100    0.0100    0.0100    0.0100    0.0100
    0.0100    0.0100    0.0100    0.0100    0.0100    0.0100    0.0100    0.0100
    0.0100    0.0100    0.0100    0.0100    0.0100    0.0100    0.0100    0.0100
    0.0100    0.0100    0.0100    0.0100    0.0100    0.0100    0.0100    0.0100
    0.0100    0.0100    0.0100    0.0100    0.0100    0.0100    0.0100    0.0100
    0.0100    0.0100    0.0100    0.0100    0.0100    0.0100    0.0100    0.0100
    0.0100    0.0100    0.0100    0.0100    0.0100    0.0100    0.0100    0.0100
    0.0100    0.0100    0.0100    0.0100    0.0100    0.0100    0.0100    0.0100
    0.0100    0.0100    0.0100    0.0100    0.0100    0.0100    0.0100    0.0100
    0.0100    0.0100    0.0100    0.0100    0.0100    0.0100    0.0100    0.0100
    0.0100    0.0100    0.0100    0.0100    0.0100    0.0100    0.0100    0.0100
    0.0100    0.0100    0.0100    0.0100    0.0100    0.0100    0.0100    0.0100
    0.0100    0.0100    0.0100    0.0100    0.0100    0.0100    0.0100    0.0100
    0.0100    0.0100    0.0100    0.0100    0.0100    0.0100    0.0100    0.0100
    0.0100    0.0100    0.0100    0.0100    0.0100    0.0100    0.0100    0.0100
    0.0100    0.0100    0.0100    0.0100    0.0100    0.0100    0.0100    0.0100
    0.0100    0.0100    0.0100    0.0100    0.0100    0.0100    0.0100    0.0100
   </PP_RAB>
 </PP_MESH>
  <PP_LOCAL type="real"  size=" 600" columns="4">
   -4.1606915985E+01   -4.1605506077E+01   -4.1601319370E+01   -4.1594307556E+01
   -4.1584422326E+01   -4.1571600915E+01   -4.1555770370E+01   -4.1536852233E+01
   -4.1514767233E+01   -4.1489439611E+01   -4.1460800792E+01   -4.1428792218E+01
   -4.1393367280E+01   -4.1354492358E+01   -4.1312147065E+01   -4.1266323825E+01
   -4.1217026959E+01   -4.1164271409E+01   -4.1108081276E+01   -4.1048488274E+01
   -4.0985530199E+01   -4.0919249491E+01   -4.0849691926E+01   -4.0776905474E+01
   -4.0700939315E+01   -4.0621843037E+01   -4.0539665986E+01   -4.0454456759E+01
   -4.0366262829E+01   -4.0275130282E+01   -4.0181103638E+01   -4.0084225758E+01
   -3.9984537814E+01   -3.9882079299E+01   -3.9776888087E+01   -3.9669000516E+01
   -3.9558451498E+01   -3.9445274639E+01   -3.9329502380E+01   -3.9211166127E+01
   -3.9090296408E+01   -3.8966923012E+01   -3.8841075133E+01   -3.8712781515E+01
   -3.8582070587E+01   -3.8448970601E+01   -3.8313509753E+01   -3.8175716313E+01
   -3.8035618732E+01   -3.7893245755E+01   -3.7748626525E+01   -3.7601790677E+01
   -3.7452768416E+01   -3.7301590616E+01   -3.7148288879E+01   -3.6992895602E+01
   -3.6835444053E+01   -3.6675968392E+01   -3.6514503760E+01   -3.6351086273E+01
   -3.6185753091E+01   -3.6018542429E+01   -3.5849493560E+01   -3.5678646881E+01
   -3.5506043865E+01   -3.5331727087E+01   -3.5155740247E+01   -3.4978128130E+01
   -3.4798936588E+01   -3.4618212570E+01   -3.4436004072E+01   -3.4252360113E+01
   -3.4067330714E+01   -3.3880966856E+01   -3.3693320483E+01   -3.3504444437E+01
   -3.3314392425E+01   -3.3123218979E+01   -3.2930979421E+01   -3.2737729812E+01
   -3.2543526912E+01   -3.2348428131E+01   -3.2152491484E+01   -3.1955775541E+01
   -3.1758339377E+01   -3.1560242523E+01   -3.1361544914E+01   -3.1162306840E+01
   -3.0962588892E+01   -3.0762451910E+01   -3.0561956936E+01   -3.0361165153E+01
   -3.0160137840E+01   -2.9958936317E+01   -2.9757621890E+01   -2.9556255805E+01
   -2.9354899189E+01   -2.9153613006E+01   -2.8952458005E+01   -2.8751494650E+01
   -2.8550783088E+01   -2.8350383088E+01   -2.8150353996E+01   -2.7950754685E+01
   -2.7751643543E+01   -2.7553078304E+01   -2.7355116102E+01   -2.7157813399E+01
   -2.6961225946E+01   -2.6765408778E+01   -2.6570415963E+01   -2.6376300760E+01
   -2.6183115513E+01   -2.5990911750E+01   -2.5799739714E+01   -2.5609648685E+01
   -2.5420686887E+01   -2.5232901523E+01   -2.5046338247E+01   -2.4861041629E+01
   -2.4677055179E+01   -2.4494420774E+01   -2.4313178867E+01   -2.4133368778E+01
   -2.3955028289E+01   -2.3778193314E+01   -2.3602898634E+01   -2.3429177471E+01
   -2.3257060842E+01   -2.3086578691E+01   -2.2917759163E+01   -2.2750628060E+01
   -2.2585210241E+01   -2.2421528192E+01   -2.2259602237E+01   -2.2099451955E+01
   -2.1941093508E+01   -2.1784541814E+01   -2.1629810250E+01   -2.1476908691E+01
   -2.1325846616E+01   -2.1176630042E+01   -2.1029263152E+01   -2.0883748883E+01
   -2.0740085942E+01   -2.0598273208E+01   -2.0458305005E+01   -2.0320174706E+01
   -2.0183873173E+01   -2.0049387766E+01   -1.9916705797E+01   -1.9785808800E+01
   -1.9656679556E+01   -1.9529294807E+01   -1.9403631616E+01   -1.9279662572E+01
   -1.9157358758E+01   -1.9036688002E+01   -1.8917617589E+01   -1.8800113535E+01
   -1.8684143558E+01   -1.8569675080E+01   -1.8456677281E+01   -1.8345118749E+01
   -1.8234970069E+01   -1.8126200962E+01   -1.8018783356E+01   -1.7912688118E+01
   -1.7807888458E+01   -1.7704356422E+01   -1.7602066451E+01   -1.7500991759E+01
   -1.7401107991E+01   -1.7302389567E+01   -1.7204813252E+01   -1.7108354711E+01
   -1.7012991758E+01   -1.6918701334E+01   -1.6825462220E+01   -1.6733252669E+01
   -1.6642052336E+01   -1.6551840817E+01   -1.6462598551E+01   -1.6374306498E+01
   -1.6286945790E+01   -1.6200498769E+01   -1.6114947181E+01   -1.6030274716E+01
   -1.5946463768E+01   -1.5863499083E+01   -1.5781364251E+01   -1.5700044468E+01
   -1.5619524746E+01   -1.5539790623E+01   -1.5460828591E+01   -1.5382624448E+01
   -1.5305166029E+01   -1.5228439846E+01   -1.5152434405E+01   -1.5077137619E+01
   -1.5002538087E+01   -1.4928625365E+01   -1.4855388064E+01   -1.4782817075E+01
   -1.4710901966E+01   -1.4639633835E+01   -1.4569003879E+01   -1.4499003017E+01
   -1.4429623908E+01   -1.4360857978E+01   -1.4292698312E+01   -1.4225137769E+01
   -1.4158169110E+01   -1.4091786485E+01   -1.4025983053E+01   -1.3960753195E+01
   -1.3896091238E+01   -1.3831991226E+01   -1.3768448314E+01   -1.3705457028E+01
   -1.3643012401E+01   -1.3581109702E+01   -1.3519743828E+01   -1.3458910308E+01
   -1.3398604443E+01   -1.3338821557E+01   -1.3279557142E+01   -1.3220806629E+01
   -1.3162565430E+01   -1.3104828954E+01   -1.3047592701E+01   -1.2990851924E+01
   -1.2934601966E+01   -1.2878838230E+01   -1.2823555775E+01   -1.2768749866E+01
   -1.2714415674E+01   -1.2660548118E+01   -1.2607142340E+01   -1.2554193269E+01
   -1.2501695720E+01   -1.2449644696E+01   -1.2398034941E+01   -1.2346861188E+01
   -1.2296118297E+01   -1.2245800914E+01   -1.2195903721E+01   -1.2146421420E+01
   -1.2097348706E+01   -1.2048680278E+01   -1.2000410729E+01   -1.1952534935E+01
   -1.1905047677E+01   -1.1857943532E+01   -1.1811217625E+01   -1.1764864891E+01
   -1.1718879955E+01   -1.1673258256E+01   -1.1627994972E+01   -1.1583084876E+01
   -1.1538523730E+01   -1.1494307039E+01   -1.1450429851E+01   -1.1406888186E+01
   -1.1363677943E+01   -1.1320794521E+01   -1.1278234143E+01   -1.1235993172E+01
   -1.1194067481E+01   -1.1152453396E+01   -1.1111147727E+01   -1.1070146876E+01
   -1.1029447264E+01   -1.0989045901E+01   -1.0948939522E+01   -1.0909124669E+01
   -1.0869598435E+01   -1.0830357698E+01   -1.0791399154E+01   -1.0752719908E+01
   -1.0714317044E+01   -1.0676187474E+01   -1.0638328238E+01   -1.0600736652E+01
   -1.0563409867E+01   -1.0526344849E+01   -1.0489539112E+01   -1.0452989951E+01
   -1.0416694508E+01   -1.0380650228E+01   -1.0344854619E+01   -1.0309305054E+01
   -1.0273998845E+01   -1.0238933714E+01   -1.0204107205E+01   -1.0169516699E+01
   -1.0135159910E+01   -1.0101034563E+01   -1.0067138275E+01   -1.0033468581E+01
   -1.0000023427E+01   -9.9668005771E+00   -9.9337976665E+00   -9.9010125667E+00
   -9.8684432350E+00   -9.8360875414E+00   -9.8039431549E+00   -9.7720082404E+00
   -9.7402807698E+00   -9.7087586427E+00   -9.6774397889E+00   -9.6463224109E+00
   -9.6154045725E+00   -9.5846842108E+00   -9.5541594935E+00   -9.5238286526E+00
   -9.4936898420E+00   -9.4637410465E+00   -9.4339806380E+00   -9.4044068820E+00
   -9.3750180024E+00   -9.3458120891E+00   -9.3167876360E+00   -9.2879429651E+00
   -9.2592763515E+00   -9.2307860409E+00   -9.2024705746E+00   -9.1743283530E+00
   -9.1463577090E+00   -9.1185570172E+00   -9.0909248709E+00   -9.0634597448E+00
   -9.0361600357E+00   -9.0090242216E+00   -8.9820509523E+00   -8.9552387738E+00
   -8.9285861519E+00   -8.9020916437E+00   -8.8757539607E+00   -8.8495717165E+00
   -8.8235434514E+00   -8.7976677784E+00   -8.7719434758E+00   -8.7463692218E+00
   -8.7209436356E+00   -8.6956653649E+00   -8.6705332594E+00   -8.6455460588E+00
   -8.6207024659E+00   -8.5960011434E+00   -8.5714410159E+00   -8.5470208822E+00
   -8.5227395329E+00   -8.4985956279E+00   -8.4745881699E+00   -8.4507160134E+00
   -8.4269780129E+00   -8.4033728953E+00   -8.3798996576E+00   -8.3565572360E+00
   -8.3333445383E+00   -8.3102603875E+00   -8.2873037338E+00   -8.2644736056E+00
   -8.2417689619E+00   -8.2191887269E+00   -8.1967317892E+00   -8.1743972708E+00
   -8.1521841790E+00   -8.1300915210E+00   -8.1081181818E+00   -8.0862633067E+00
   -8.0645259720E+00   -8.0429052311E+00   -8.0214000772E+00   -8.0000095585E+00
   -7.9787328561E+00   -7.9575690676E+00   -7.9365172906E+00   -7.9155764950E+00
   -7.8947459354E+00   -7.8740247610E+00   -7.8534121113E+00   -7.8329070710E+00
   -7.8125087679E+00   -7.7922164639E+00   -7.7720293388E+00   -7.7519465724E+00
   -7.7319672379E+00   -7.7120906256E+00   -7.6923159796E+00   -7.6726425180E+00
   -7.6530694373E+00   -7.6335958747E+00   -7.6142211919E+00   -7.5949446434E+00
   -7.5757654837E+00   -7.5566829083E+00   -7.5376961766E+00   -7.5188046469E+00
   -7.5000076085E+00   -7.4813043505E+00   -7.4626940752E+00   -7.4441761434E+00
   -7.4257499151E+00   -7.4074147127E+00   -7.3891698584E+00   -7.3710145687E+00
   -7.3529482847E+00   -7.3349703746E+00   -7.3170801923E+00   -7.2992770902E+00
   -7.2815603092E+00   -7.2639293473E+00   -7.2463835887E+00   -7.2289224171E+00
   -7.2115452073E+00   -7.1942512498E+00   -7.1770400618E+00   -7.1599110558E+00
   -7.1428636447E+00   -7.1258972309E+00   -7.1090111379E+00   -7.0922049069E+00
   -7.0754779780E+00   -7.0588297913E+00   -7.0422597825E+00   -7.0257672924E+00
   -7.0093518910E+00   -6.9930130446E+00   -6.9767502191E+00   -6.9605628808E+00
   -6.9444503975E+00   -6.9284123479E+00   -6.9124482312E+00   -6.8965575385E+00
   -6.8807397607E+00   -6.8649943099E+00   -6.8493207470E+00   -6.8337186131E+00
   -6.8181874230E+00   -6.8027266915E+00   -6.7873358795E+00   -6.7720145167E+00
   -6.7567621904E+00   -6.7415784380E+00   -6.7264627968E+00   -6.7114147816E+00
   -6.6964338789E+00   -6.6815197251E+00   -6.6666718793E+00   -6.6518899002E+00
   -6.6371733469E+00   -6.6225216947E+00   -6.6079345890E+00   -6.5934116235E+00
   -6.5789523775E+00   -6.5645564307E+00   -6.5502233204E+00   -6.5359526215E+00
   -6.5217439877E+00   -6.5075970180E+00   -6.4935113114E+00   -6.4794864669E+00
   -6.4655219966E+00   -6.4516175981E+00   -6.4377728949E+00   -6.4239875045E+00
   -6.4102610447E+00   -6.3965930977E+00   -6.3829832669E+00   -6.3694312442E+00
   -6.3559366652E+00   -6.3424991652E+00   -6.3291183799E+00   -6.3157938771E+00
   -6.3025253509E+00   -6.2893124757E+00   -6.2761549038E+00   -6.2630522877E+00
   -6.2500042738E+00   -6.2370104418E+00   -6.2240705402E+00   -6.2111842377E+00
   -6.1983512030E+00   -6.1855711049E+00   -6.1728435852E+00   -6.1601682855E+00
   -6.1475449483E+00   -6.1349732579E+00   -6.1224528983E+00   -6.1099835538E+00
   -6.0975648679E+00   -6.0851965290E+00   -6.0728782790E+00   -6.0606098169E+00
   -6.0483908415E+00   -6.0362210517E+00   -6.0241000985E+00   -6.0120277026E+00
   -6.0000036107E+00   -5.9880275359E+00   -5.9760991909E+00   -5.9642182887E+00
   -5.9523844931E+00   -5.9405975433E+00   -5.9288571963E+00   -5.9171631783E+00
   -5.9055152157E+00   -5.8939130346E+00   -5.8823563167E+00   -5.8708448067E+00
   -5.8593782771E+00   -5.8479564666E+00   -5.8365791145E+00   -5.8252459596E+00
   -5.8139567058E+00   -5.8027110919E+00   -5.7915089099E+00   -5.7803499109E+00
   -5.7692338462E+00   -5.7581604670E+00   -5.7471295038E+00   -5.7361406779E+00
   -5.7251938056E+00   -5.7142886497E+00   -5.7034249728E+00   -5.6926025378E+00
   -5.6818211063E+00   -5.6710803721E+00   -5.6603801791E+00   -5.6497203012E+00
   -5.6391005120E+00   -5.6285205856E+00   -5.6179802957E+00   -5.6074793681E+00
   -5.5970176088E+00   -5.5865948250E+00   -5.5762108010E+00   -5.5658653213E+00
   -5.5555581701E+00   -5.5452891132E+00   -5.5350579058E+00   -5.5248643926E+00
   -5.5147083680E+00   -5.5045896264E+00   -5.4945079623E+00   -5.4844631700E+00
   -5.4744549916E+00   -5.4644832662E+00   -5.4545478127E+00   -5.4446484351E+00
   -5.4347849375E+00   -5.4249571237E+00   -5.4151647837E+00   -5.4054076859E+00
   -5.3956856948E+00   -5.3859986235E+00   -5.3763462853E+00   -5.3667284932E+00
   -5.3571450603E+00   -5.3475957633E+00   -5.3380804286E+00   -5.3285989060E+00
   -5.3191510172E+00   -5.3097365842E+00   -5.3003554288E+00   -5.2910073727E+00
   -5.2816921854E+00   -5.2724097379E+00   -5.2631598704E+00   -5.2539424131E+00
   -5.2447571960E+00   -5.2356040493E+00   -5.2264828010E+00   -5.2173932250E+00
   -5.2083352179E+00   -5.1993086177E+00   -5.1903132623E+00   -5.1813489899E+00
   -5.1724156386E+00   -5.1635130373E+00   -5.1546409835E+00   -5.1457993734E+00
   -5.1369880525E+00   -5.1282068664E+00   -5.1194556607E+00   -5.1107342811E+00
   -5.1020425626E+00   -5.0933803146E+00   -5.0847474378E+00   -5.0761437849E+00
   -5.0675692086E+00   -5.0590235618E+00   -5.0505066973E+00   -5.0420184607E+00
   -5.0335586630E+00   -5.0251272134E+00   -5.0167239717E+00   -5.0083487975E+00
  </PP_LOCAL>
 <PP_NONLOCAL>
   <PP_BETA.1
       type="real"
       size=" 600"
       columns="4"
       index="1"
       angular_momentum="0"
       cutoff_radius_index=" 272"
       cutoff_radius="    2.7100000000E+00" >
    0.0000000000E+00    4.9661485998E-02    9.9261911601E-02    1.4874028275E-01
    1.9803573811E-01    2.4708761549E-01    2.9583551843E-01    3.4421938287E-01
    3.9217954404E-01    4.3965680350E-01    4.8659249641E-01    5.3292855908E-01
    5.7860759669E-01    6.2357295135E-01    6.6776877034E-01    7.1114007466E-01
    7.5363282779E-01    7.9519400462E-01    8.3577166068E-01    8.7531500140E-01
    9.1377445151E-01    9.5110172449E-01    9.8724989201E-01    1.0221734532E+00
    1.0558284039E+00    1.0881723051E+00    1.1191643522E+00    1.1487654420E+00
    1.1769382408E+00    1.2036472504E+00    1.2288588741E+00    1.2525414812E+00
    1.2746654703E+00    1.2952033304E+00    1.3141297037E+00    1.3314214407E+00
    1.3470576604E+00    1.3610198015E+00    1.3732916766E+00    1.3838595214E+00
    1.3927120407E+00    1.3998404521E+00    1.4052385270E+00    1.4089026270E+00
    1.4108317375E+00    1.4110274970E+00    1.4094942222E+00    1.4062389288E+00
    1.4012713478E+00    1.3946039356E+00    1.3862518850E+00    1.3762331218E+00
    1.3645683010E+00    1.3512808019E+00    1.3363967079E+00    1.3199447873E+00
    1.3019564674E+00    1.2824657994E+00    1.2615094206E+00    1.2391265086E+00
    1.2153587281E+00    1.1902501739E+00    1.1638473086E+00    1.1361988828E+00
    1.1073558686E+00    1.0773713727E+00    1.0463005348E+00    1.0142004456E+00
    9.8113004890E-01    9.4715000986E-01    9.1232261518E-01    8.7671165597E-01
    8.4038229982E-01    8.0340097347E-01    7.6583519080E-01    7.2775344212E-01
    6.8922504711E-01    6.5032000416E-01    6.1110883883E-01    5.7166244896E-01
    5.3205194723E-01    4.9234850119E-01    4.5262317161E-01    4.1294674919E-01
    3.7338959055E-01    3.3402145348E-01    2.9491133244E-01    2.5612729440E-01
    2.1773631584E-01    1.7980412123E-01    1.4239502366E-01    1.0557176816E-01
    6.9395378200E-02    3.3925006062E-02   -7.8221241606E-04   -3.4671298066E-02
   -6.7689563044E-02   -9.9786707661E-02   -1.3091496081E-01   -1.6102933228E-01
   -1.9008753934E-01   -2.1805017078E-01   -2.4488077815E-01   -2.7054594827E-01
   -2.9501524041E-01   -3.1826174689E-01   -3.4026165679E-01   -3.6099445082E-01
   -3.8044289740E-01   -3.9859301298E-01   -4.1543457178E-01   -4.3096054483E-01
   -4.4516726923E-01   -4.5805421086E-01   -4.6962469323E-01   -4.7988512747E-01
   -4.8884510887E-01   -4.9651734303E-01   -5.0291808410E-01   -5.0806641177E-01
   -5.1198423502E-01   -5.1469663308E-01   -5.1623141531E-01   -5.1661890851E-01
   -5.1589210178E-01   -5.1408644599E-01   -5.1123954836E-01   -5.0739124818E-01
   -5.0258330298E-01   -4.9685930163E-01   -4.9026458149E-01   -4.8284572511E-01
   -4.7465091455E-01   -4.6572932192E-01   -4.5613080347E-01   -4.4590671578E-01
   -4.3510808503E-01   -4.2378672036E-01   -4.1199511399E-01   -3.9978451288E-01
   -3.8720744275E-01   -3.7431488839E-01   -3.6115747094E-01   -3.4778611148E-01