
     Program PWSCF v.5.0.2 (svn rev. 9392) starts on 29Aug2016 at  9:49:17 

     This program is part of the open-source Quantum ESPRESSO suite
     for quantum simulation of materials; please cite
         "P. Giannozzi et al., J. Phys.:Condens. Matter 21 395502 (2009);
          URL http://www.quantum-espresso.org", 
     in publications or presentations arising from this work. More details at
     http://www.quantum-espresso.org/quote.php

     Parallel version (MPI), running on     7 processors
     R & G space division:  proc/nbgrp/npool/nimage =       7

     Current dimensions of program PWSCF are:
     Max number of different atomic species (ntypx) = 10
     Max number of k-points (npk) =  40000
     Max angular momentum in pseudopotentials (lmaxx) =  3
     Waiting for input...
     Reading input from standard input

     Subspace diagonalization in iterative solution of the eigenvalue problem:
     a serial algorithm will be used

 
     Parallelization info
     --------------------
     sticks:   dense  smooth     PW     G-vecs:    dense   smooth      PW
     Min         222      89     28                11621     2919     518
     Max         223      90     29                11625     2939     523
     Sum        1555     625    199                81361    20507    3639
 


     bravais-lattice index     =            0
     lattice parameter (alat)  =       5.6565  a.u.
     unit-cell volume          =     212.6815 (a.u.)^3
     number of atoms/cell      =            4
     number of atomic types    =            3
     number of electrons       =        32.00
     number of Kohn-Sham states=           16
     kinetic-energy cutoff     =      80.0000  Ry
     charge density cutoff     =     800.0000  Ry
     convergence threshold     =      1.0E-12
     mixing beta               =       0.7000
     number of iterations used =            8  plain     mixing
     Exchange-correlation      =  SLA  PW   PSX  PSC ( 1 410 8 0)
     EXX-fraction              =        0.00

     celldm(1)=   5.656500  celldm(2)=   0.000000  celldm(3)=   0.000000
     celldm(4)=   0.000000  celldm(5)=   0.000000  celldm(6)=   0.000000

     crystal axes: (cart. coord. in units of alat)
               a(1) = (   0.469727   0.813606   0.001548 )  
               a(2) = (  -0.469743   0.813594   0.001573 )  
               a(3) = (   0.000018   0.539401   1.538453 )  

     reciprocal axes: (cart. coord. in units 2 pi/alat)
               b(1) = (  1.064416  0.614977 -0.215631 )  
               b(2) = ( -1.064443  0.614955 -0.215599 )  
               b(3) = (  0.000017 -0.001248  0.650441 )  


     PseudoPot. # 1 for Co read from file:
     ./co_pbesol_v1.2.uspp.F.UPF
     MD5 check sum: 3b4cd4e7cc7df4da9fdede0fd33e2193
     Pseudo is Ultrasoft + core correction, Zval = 17.0
     Generated by new atomic code, or converted to UPF format
     Using radial grid of  863 points,  6 beta functions with: 
                l(1) =   0
                l(2) =   0
                l(3) =   1
                l(4) =   1
                l(5) =   2
                l(6) =   2
     Q(r) pseudized with  8 coefficients,  rinner =    1.200   1.200   1.200
                                                       1.200   1.200

     PseudoPot. # 2 for  O read from file:
     ./O.pbesol-n-rrkjus_psl.0.1.UPF
     MD5 check sum: fef7d1fa2206f1010587a3682cab9228
     Pseudo is Ultrasoft + core correction, Zval =  6.0
     Generated using "atomic" code by A. Dal Corso  v.5.0.99 svn rev. 10869
     Using radial grid of 1095 points,  4 beta functions with: 
                l(1) =   0
                l(2) =   0
                l(3) =   1
                l(4) =   1
     Q(r) pseudized with 0 coefficients 


     PseudoPot. # 3 for Li read from file:
     ./li_pbesol_v1.4.uspp.F.UPF
     MD5 check sum: 3ab8cf443298431596f4147a8981ed5f
     Pseudo is Ultrasoft, Zval =  3.0
     Generated by new atomic code, or converted to UPF format
     Using radial grid of  751 points,  5 beta functions with: 
                l(1) =   0
                l(2) =   0
                l(3) =   0
                l(4) =   1
                l(5) =   1
     Q(r) pseudized with 10 coefficients,  rinner =    1.150   1.150   1.150


     atomic species   valence    mass     pseudopotential
        Co            17.00    58.93319     Co( 1.00)
        O              6.00    15.99900      O( 1.00)
        Li             3.00     6.94000     Li( 1.00)


     Simplified LDA+U calculation (l_max = 2) with parameters (eV):
     atomic species    L          U    alpha       J0     beta
        Co             2     8.9288   0.0000   0.0000   0.0000



     No symmetry found


                                    s                        frac. trans.

      isym =  1     identity                                     

 cryst.   s( 1) = (     1          0          0      )
                  (     0          1          0      )
                  (     0          0          1      )

 cart.    s( 1) = (  1.0000000 -0.0000000  0.0000000 )
                  (  0.0000000  1.0000000  0.0000000 )
                  ( -0.0000000 -0.0000000  1.0000000 )


     point group C_1 (1)    
     there are  1 classes
     the character table:

       E    
A      1.00

     the symmetry operations in each class:
     E        1

   Cartesian axes

     site n.     atom                  positions (alat units)
         1           Co  tau(   1) = (   0.0000056  -0.0000051  -0.0000000  )
         2           Li  tau(   2) = (   0.0000456   1.0832555   0.7707873  )
         3           O   tau(   3) = (   0.0000093   0.5417566   0.3347727  )
         4           O   tau(   4) = (   0.0000026   1.6248354   1.2068019  )

   Crystallographic axes

     site n.     atom                  positions (cryst. coord.)
         1           Co  tau(   1) = (  0.0000028 -0.0000090  0.0000000  )
         2           Li  tau(   2) = (  0.5000200  0.4999243  0.5000000  )
         3           O   tau(   3) = (  0.2609903  0.2609696  0.2170739  )
         4           O   tau(   4) = (  0.7390151  0.7390131  0.7829261  )

     number of k points=   196
                       cart. coord. in units 2pi/alat
        k(    1) = (   0.0000000   0.0000000   0.0000000), wk =   0.0052083
        k(    2) = (   0.0000028  -0.0002079   0.1084068), wk =   0.0104167
        k(    3) = (   0.0000056  -0.0004159   0.2168136), wk =   0.0104167
        k(    4) = (  -0.0000084   0.0006238  -0.3252204), wk =   0.0052083
        k(    5) = (  -0.1330553   0.0768694  -0.0269498), wk =   0.0104167
        k(    6) = (  -0.1330525   0.0766615   0.0814570), wk =   0.0104167
        k(    7) = (  -0.1330497   0.0764535   0.1898638), wk =   0.0104167
        k(    8) = (  -0.1330637   0.0774932  -0.3521703), wk =   0.0104167
        k(    9) = (  -0.1330609   0.0772853  -0.2437635), wk =   0.0104167
        k(   10) = (  -0.1330581   0.0770773  -0.1353567), wk =   0.0104167
        k(   11) = (  -0.2661107   0.1537388  -0.0538997), wk =   0.0104167
        k(   12) = (  -0.2661079   0.1535309   0.0545071), wk =   0.0104167
        k(   13) = (  -0.2661051   0.1533229   0.1629139), wk =   0.0104167
        k(   14) = (  -0.2661191   0.1543626  -0.3791201), wk =   0.0104167
        k(   15) = (  -0.2661163   0.1541547  -0.2707133), wk =   0.0104167
        k(   16) = (  -0.2661135   0.1539467  -0.1623065), wk =   0.0104167
        k(   17) = (  -0.3991660   0.2306082  -0.0808495), wk =   0.0104167
        k(   18) = (  -0.3991632   0.2304003   0.0275573), wk =   0.0104167
        k(   19) = (  -0.3991604   0.2301923   0.1359641), wk =   0.0104167
        k(   20) = (  -0.3991744   0.2312320  -0.4060700), wk =   0.0104167
        k(   21) = (  -0.3991716   0.2310241  -0.2976632), wk =   0.0104167
        k(   22) = (  -0.3991688   0.2308161  -0.1892564), wk =   0.0104167
        k(   23) = (   0.5322213  -0.3074776   0.1077994), wk =   0.0052083
        k(   24) = (   0.5322241  -0.3076855   0.2162062), wk =   0.0104167
        k(   25) = (   0.5322269  -0.3078935   0.3246130), wk =   0.0104167
        k(   26) = (   0.5322129  -0.3068538  -0.2174210), wk =   0.0052083
        k(   27) = (   0.1330521   0.0768721  -0.0269539), wk =   0.0104167
        k(   28) = (   0.1330549   0.0766642   0.0814529), wk =   0.0104167
        k(   29) = (   0.1330577   0.0764562   0.1898597), wk =   0.0104167
        k(   30) = (   0.1330437   0.0774959  -0.3521743), wk =   0.0104167
        k(   31) = (   0.1330465   0.0772880  -0.2437675), wk =   0.0104167
        k(   32) = (   0.1330493   0.0770800  -0.1353607), wk =   0.0104167
        k(   33) = (  -0.0000033   0.1537415  -0.0539037), wk =   0.0104167
        k(   34) = (  -0.0000005   0.1535336   0.0545031), wk =   0.0104167
        k(   35) = (   0.0000023   0.1533256   0.1629099), wk =   0.0104167
        k(   36) = (  -0.0000117   0.1543653  -0.3791241), wk =   0.0104167
        k(   37) = (  -0.0000089   0.1541574  -0.2707173), wk =   0.0104167
        k(   38) = (  -0.0000061   0.1539494  -0.1623105), wk =   0.0104167
        k(   39) = (  -0.1330586   0.2306109  -0.0808536), wk =   0.0104167
        k(   40) = (  -0.1330558   0.2304030   0.0275532), wk =   0.0104167
        k(   41) = (  -0.1330530   0.2301950   0.1359600), wk =   0.0104167
        k(   42) = (  -0.1330670   0.2312347  -0.4060740), wk =   0.0104167
        k(   43) = (  -0.1330642   0.2310268  -0.2976672), wk =   0.0104167
        k(   44) = (  -0.1330614   0.2308188  -0.1892604), wk =   0.0104167
        k(   45) = (  -0.2661139   0.3074803  -0.1078034), wk =   0.0104167
        k(   46) = (  -0.2661111   0.3072724   0.0006034), wk =   0.0104167
        k(   47) = (  -0.2661083   0.3070644   0.1090102), wk =   0.0104167
        k(   48) = (  -0.2661223   0.3081041  -0.4330238), wk =   0.0104167
        k(   49) = (  -0.2661195   0.3078962  -0.3246170), wk =   0.0104167
        k(   50) = (  -0.2661167   0.3076882  -0.2162102), wk =   0.0104167
        k(   51) = (   0.6652734  -0.2306055   0.0808455), wk =   0.0104167
        k(   52) = (   0.6652762  -0.2308134   0.1892523), wk =   0.0104167
        k(   53) = (   0.6652790  -0.2310214   0.2976591), wk =   0.0104167
        k(   54) = (   0.6652650  -0.2299817  -0.2443749), wk =   0.0104167
        k(   55) = (   0.6652678  -0.2301896  -0.1359681), wk =   0.0104167
        k(   56) = (   0.6652706  -0.2303976  -0.0275613), wk =   0.0104167
        k(   57) = (   0.5322180  -0.1537361   0.0538957), wk =   0.0104167
        k(   58) = (   0.5322208  -0.1539440   0.1623025), wk =   0.0104167
        k(   59) = (   0.5322236  -0.1541520   0.2707093), wk =   0.0104167
        k(   60) = (   0.5322096  -0.1531123  -0.2713247), wk =   0.0104167
        k(   61) = (   0.5322124  -0.1533202  -0.1629179), wk =   0.0104167
        k(   62) = (   0.5322152  -0.1535282  -0.0545111), wk =   0.0104167
        k(   63) = (   0.3991627  -0.0768667   0.0269458), wk =   0.0104167
        k(   64) = (   0.3991655  -0.0770746   0.1353526), wk =   0.0104167
        k(   65) = (   0.3991683  -0.0772826   0.2437594), wk =   0.0104167
        k(   66) = (   0.3991543  -0.0762429  -0.2982746), wk =   0.0104167
        k(   67) = (   0.3991571  -0.0764508  -0.1898678), wk =   0.0104167
        k(   68) = (   0.3991599  -0.0766588  -0.0814610), wk =   0.0104167
        k(   69) = (   0.2661074   0.0000027  -0.0000040), wk =   0.0104167
        k(   70) = (   0.2661102  -0.0002052   0.1084028), wk =   0.0104167
        k(   71) = (   0.2661130  -0.0004132   0.2168096), wk =   0.0104167
        k(   72) = (   0.2660990   0.0006265  -0.3252244), wk =   0.0104167
        k(   73) = (   0.2661018   0.0004186  -0.2168176), wk =   0.0104167
        k(   74) = (   0.2661046   0.0002106  -0.1084108), wk =   0.0104167
        k(   75) = (   0.2661041   0.1537442  -0.0539077), wk =   0.0104167
        k(   76) = (   0.2661069   0.1535363   0.0544991), wk =   0.0104167
        k(   77) = (   0.2661097   0.1533283   0.1629059), wk =   0.0104167
        k(   78) = (   0.2660957   0.1543680  -0.3791282), wk =   0.0104167
        k(   79) = (   0.2660985   0.1541601  -0.2707214), wk =   0.0104167
        k(   80) = (   0.2661013   0.1539521  -0.1623145), wk =   0.0104167
        k(   81) = (   0.1330488   0.2306136  -0.0808576), wk =   0.0104167
        k(   82) = (   0.1330516   0.2304057   0.0275492), wk =   0.0104167
        k(   83) = (   0.1330544   0.2301977   0.1359560), wk =   0.0104167
        k(   84) = (   0.1330404   0.2312374  -0.4060780), wk =   0.0104167
        k(   85) = (   0.1330432   0.2310295  -0.2976712), wk =   0.0104167
        k(   86) = (   0.1330460   0.2308215  -0.1892644), wk =   0.0104167
        k(   87) = (  -0.0000065   0.3074830  -0.1078074), wk =   0.0104167
        k(   88) = (  -0.0000037   0.3072751   0.0005994), wk =   0.0104167
        k(   89) = (  -0.0000009   0.3070671   0.1090062), wk =   0.0104167
        k(   90) = (  -0.0000149   0.3081068  -0.4330279), wk =   0.0104167
        k(   91) = (  -0.0000121   0.3078989  -0.3246210), wk =   0.0104167
        k(   92) = (  -0.0000093   0.3076909  -0.2162142), wk =   0.0104167
        k(   93) = (  -0.1330619   0.3843524  -0.1347573), wk =   0.0104167
        k(   94) = (  -0.1330591   0.3841445  -0.0263505), wk =   0.0104167
        k(   95) = (  -0.1330563   0.3839365   0.0820563), wk =   0.0104167
        k(   96) = (  -0.1330703   0.3849762  -0.4599777), wk =   0.0104167
        k(   97) = (  -0.1330675   0.3847683  -0.3515709), wk =   0.0104167
        k(   98) = (  -0.1330647   0.3845603  -0.2431641), wk =   0.0104167
        k(   99) = (   0.7983254  -0.1537334   0.0538917), wk =   0.0104167
        k(  100) = (   0.7983282  -0.1539413   0.1622985), wk =   0.0104167
        k(  101) = (   0.7983310  -0.1541493   0.2707053), wk =   0.0104167
        k(  102) = (   0.7983170  -0.1531096  -0.2713288), wk =   0.0104167
        k(  103) = (   0.7983198  -0.1533175  -0.1629220), wk =   0.0104167
        k(  104) = (   0.7983226  -0.1535255  -0.0545152), wk =   0.0104167
        k(  105) = (   0.6652701  -0.0768640   0.0269418), wk =   0.0104167
        k(  106) = (   0.6652729  -0.0770719   0.1353486), wk =   0.0104167
        k(  107) = (   0.6652757  -0.0772799   0.2437554), wk =   0.0104167
        k(  108) = (   0.6652617  -0.0762402  -0.2982786), wk =   0.0104167
        k(  109) = (   0.6652645  -0.0764481  -0.1898718), wk =   0.0104167
        k(  110) = (   0.6652673  -0.0766561  -0.0814650), wk =   0.0104167
        k(  111) = (   0.5322148   0.0000054  -0.0000080), wk =   0.0104167
        k(  112) = (   0.5322176  -0.0002025   0.1083988), wk =   0.0104167
        k(  113) = (   0.5322204  -0.0004105   0.2168056), wk =   0.0104167
        k(  114) = (   0.5322064   0.0006292  -0.3252285), wk =   0.0104167
        k(  115) = (   0.5322092   0.0004213  -0.2168217), wk =   0.0104167
        k(  116) = (   0.5322120   0.0002133  -0.1084148), wk =   0.0104167
        k(  117) = (   0.3991594   0.0768748  -0.0269579), wk =   0.0104167
        k(  118) = (   0.3991622   0.0766669   0.0814489), wk =   0.0104167
        k(  119) = (   0.3991650   0.0764589   0.1898557), wk =   0.0104167
        k(  120) = (   0.3991510   0.0774986  -0.3521783), wk =   0.0104167
        k(  121) = (   0.3991538   0.0772907  -0.2437715), wk =   0.0104167
        k(  122) = (   0.3991566   0.0770827  -0.1353647), wk =   0.0104167
        k(  123) = (   0.3991562   0.2306163  -0.0808616), wk =   0.0104167
        k(  124) = (   0.3991590   0.2304084   0.0275452), wk =   0.0104167
        k(  125) = (   0.3991618   0.2302004   0.1359520), wk =   0.0104167
        k(  126) = (   0.3991478   0.2312401  -0.4060820), wk =   0.0104167
        k(  127) = (   0.3991506   0.2310322  -0.2976752), wk =   0.0104167
        k(  128) = (   0.3991534   0.2308243  -0.1892684), wk =   0.0104167
        k(  129) = (   0.2661008   0.3074857  -0.1078115), wk =   0.0104167
        k(  130) = (   0.2661036   0.3072778   0.0005954), wk =   0.0104167
        k(  131) = (   0.2661064   0.3070698   0.1090022), wk =   0.0104167
        k(  132) = (   0.2660924   0.3081095  -0.4330319), wk =   0.0104167
        k(  133) = (   0.2660952   0.3079016  -0.3246251), wk =   0.0104167
        k(  134) = (   0.2660980   0.3076937  -0.2162183), wk =   0.0104167
        k(  135) = (   0.1330455   0.3843551  -0.1347613), wk =   0.0104167
        k(  136) = (   0.1330483   0.3841472  -0.0263545), wk =   0.0104167
        k(  137) = (   0.1330511   0.3839392   0.0820523), wk =   0.0104167
        k(  138) = (   0.1330371   0.3849789  -0.4599817), wk =   0.0104167
        k(  139) = (   0.1330399   0.3847710  -0.3515749), wk =   0.0104167
        k(  140) = (   0.1330427   0.3845631  -0.2431681), wk =   0.0104167
        k(  141) = (  -0.0000098   0.4612245  -0.1617112), wk =   0.0104167
        k(  142) = (  -0.0000070   0.4610166  -0.0533043), wk =   0.0104167
        k(  143) = (  -0.0000042   0.4608086   0.0551025), wk =   0.0104167
        k(  144) = (  -0.0000182   0.4618483  -0.4869316), wk =   0.0104167
        k(  145) = (  -0.0000154   0.4616404  -0.3785248), wk =   0.0104167
        k(  146) = (  -0.0000126   0.4614325  -0.2701180), wk =   0.0104167
        k(  147) = (   0.9313775  -0.0768613   0.0269378), wk =   0.0104167
        k(  148) = (   0.9313803  -0.0770692   0.1353446), wk =   0.0104167
        k(  149) = (   0.9313831  -0.0772772   0.2437514), wk =   0.0104167
        k(  150) = (   0.9313691  -0.0762375  -0.2982826), wk =   0.0104167
        k(  151) = (   0.9313719  -0.0764454  -0.1898758), wk =   0.0104167
        k(  152) = (   0.9313747  -0.0766533  -0.0814690), wk =   0.0104167
        k(  153) = (   0.7983221   0.0000081  -0.0000121), wk =   0.0104167
        k(  154) = (   0.7983249  -0.0001998   0.1083947), wk =   0.0104167
        k(  155) = (   0.7983277  -0.0004078   0.2168016), wk =   0.0104167
        k(  156) = (   0.7983137   0.0006319  -0.3252325), wk =   0.0104167
        k(  157) = (   0.7983165   0.0004240  -0.2168257), wk =   0.0104167
        k(  158) = (   0.7983193   0.0002161  -0.1084189), wk =   0.0104167
        k(  159) = (   0.6652668   0.0768775  -0.0269619), wk =   0.0104167
        k(  160) = (   0.6652696   0.0766696   0.0814449), wk =   0.0104167
        k(  161) = (   0.6652724   0.0764616   0.1898517), wk =   0.0104167
        k(  162) = (   0.6652584   0.0775013  -0.3521823), wk =   0.0104167
        k(  163) = (   0.6652612   0.0772934  -0.2437755), wk =   0.0104167
        k(  164) = (   0.6652640   0.0770855  -0.1353687), wk =   0.0104167
        k(  165) = (   0.5322115   0.1537469  -0.0539118), wk =   0.0104167
        k(  166) = (   0.5322143   0.1535390   0.0544950), wk =   0.0104167
        k(  167) = (   0.5322171   0.1533310   0.1629019), wk =   0.0104167
        k(  168) = (   0.5322031   0.1543707  -0.3791322), wk =   0.0104167
        k(  169) = (   0.5322059   0.1541628  -0.2707254), wk =   0.0104167
        k(  170) = (   0.5322087   0.1539549  -0.1623186), wk =   0.0104167
        k(  171) = (  -0.5322082  -0.3074884   0.1078155), wk =   0.0052083
        k(  172) = (  -0.5322054  -0.3076964   0.2162223), wk =   0.0104167
        k(  173) = (  -0.5322026  -0.3079043   0.3246291), wk =   0.0104167
        k(  174) = (  -0.5322166  -0.3068646  -0.2174049), wk =   0.0052083
        k(  175) = (  -0.6652635  -0.2306190   0.0808656), wk =   0.0104167
        k(  176) = (  -0.6652607  -0.2308270   0.1892724), wk =   0.0104167
        k(  177) = (  -0.6652579  -0.2310349   0.2976792), wk =   0.0104167
        k(  178) = (  -0.6652719  -0.2299952  -0.2443548), wk =   0.0104167
        k(  179) = (  -0.6652691  -0.2302031  -0.1359480), wk =   0.0104167
        k(  180) = (  -0.6652663  -0.2304111  -0.0275412), wk =   0.0104167
        k(  181) = (  -0.7983189  -0.1537496   0.0539158), wk =   0.0104167
        k(  182) = (  -0.7983161  -0.1539576   0.1623226), wk =   0.0104167
        k(  183) = (  -0.7983133  -0.1541655   0.2707294), wk =   0.0104167
        k(  184) = (  -0.7983273  -0.1531258  -0.2713046), wk =   0.0104167
        k(  185) = (  -0.7983245  -0.1533337  -0.1628978), wk =   0.0104167
        k(  186) = (  -0.7983217  -0.1535417  -0.0544910), wk =   0.0104167
        k(  187) = (  -0.9313742  -0.0768802   0.0269659), wk =   0.0104167
        k(  188) = (  -0.9313714  -0.0770882   0.1353727), wk =   0.0104167
        k(  189) = (  -0.9313686  -0.0772961   0.2437795), wk =   0.0104167
        k(  190) = (  -0.9313826  -0.0762564  -0.2982545), wk =   0.0104167
        k(  191) = (  -0.9313798  -0.0764643  -0.1898477), wk =   0.0104167
        k(  192) = (  -0.9313770  -0.0766723  -0.0814409), wk =   0.0104167
        k(  193) = (   0.0000131  -0.6149660   0.2156149), wk =   0.0052083
        k(  194) = (   0.0000159  -0.6151740   0.3240217), wk =   0.0104167
        k(  195) = (   0.0000187  -0.6153819   0.4324285), wk =   0.0104167
        k(  196) = (   0.0000047  -0.6143422  -0.1096056), wk =   0.0052083

                       cryst. coord.
        k(    1) = (   0.0000000   0.0000000   0.0000000), wk =   0.0052083
        k(    2) = (   0.0000000  -0.0000000   0.1666667), wk =   0.0104167
        k(    3) = (   0.0000000  -0.0000000   0.3333333), wk =   0.0104167
        k(    4) = (   0.0000000   0.0000000  -0.5000000), wk =   0.0052083
        k(    5) = (  -0.0000000   0.1250000  -0.0000000), wk =   0.0104167
        k(    6) = (  -0.0000000   0.1250000   0.1666667), wk =   0.0104167
        k(    7) = (  -0.0000000   0.1250000   0.3333333), wk =   0.0104167
        k(    8) = (   0.0000000   0.1250000  -0.5000000), wk =   0.0104167
        k(    9) = (  -0.0000000   0.1250000  -0.3333333), wk =   0.0104167
        k(   10) = (  -0.0000000   0.1250000  -0.1666667), wk =   0.0104167
        k(   11) = (  -0.0000000   0.2500000  -0.0000000), wk =   0.0104167
        k(   12) = (  -0.0000000   0.2500000   0.1666667), wk =   0.0104167
        k(   13) = (  -0.0000000   0.2500000   0.3333333), wk =   0.0104167
        k(   14) = (  -0.0000000   0.2500000  -0.5000000), wk =   0.0104167
        k(   15) = (  -0.0000000   0.2500000  -0.3333333), wk =   0.0104167
        k(   16) = (  -0.0000000   0.2500000  -0.1666667), wk =   0.0104167
        k(   17) = (  -0.0000000   0.3750000  -0.0000000), wk =   0.0104167
        k(   18) = (  -0.0000000   0.3750000   0.1666667), wk =   0.0104167
        k(   19) = (  -0.0000000   0.3750000   0.3333333), wk =   0.0104167
        k(   20) = (  -0.0000000   0.3750000  -0.5000000), wk =   0.0104167
        k(   21) = (  -0.0000000   0.3750000  -0.3333333), wk =   0.0104167
        k(   22) = (  -0.0000000   0.3750000  -0.1666667), wk =   0.0104167
        k(   23) = (   0.0000000  -0.5000000   0.0000000), wk =   0.0052083
        k(   24) = (   0.0000000  -0.5000000   0.1666667), wk =   0.0104167
        k(   25) = (   0.0000000  -0.5000000   0.3333333), wk =   0.0104167
        k(   26) = (   0.0000000  -0.5000000  -0.5000000), wk =   0.0052083
        k(   27) = (   0.1250000  -0.0000000   0.0000000), wk =   0.0104167
        k(   28) = (   0.1250000  -0.0000000   0.1666667), wk =   0.0104167
        k(   29) = (   0.1250000  -0.0000000   0.3333333), wk =   0.0104167
        k(   30) = (   0.1250000  -0.0000000  -0.5000000), wk =   0.0104167
        k(   31) = (   0.1250000  -0.0000000  -0.3333333), wk =   0.0104167
        k(   32) = (   0.1250000  -0.0000000  -0.1666667), wk =   0.0104167
        k(   33) = (   0.1250000   0.1250000  -0.0000000), wk =   0.0104167
        k(   34) = (   0.1250000   0.1250000   0.1666667), wk =   0.0104167
        k(   35) = (   0.1250000   0.1250000   0.3333333), wk =   0.0104167
        k(   36) = (   0.1250000   0.1250000  -0.5000000), wk =   0.0104167
        k(   37) = (   0.1250000   0.1250000  -0.3333333), wk =   0.0104167
        k(   38) = (   0.1250000   0.1250000  -0.1666667), wk =   0.0104167
        k(   39) = (   0.1250000   0.2500000  -0.0000000), wk =   0.0104167
        k(   40) = (   0.1250000   0.2500000   0.1666667), wk =   0.0104167
        k(   41) = (   0.1250000   0.2500000   0.3333333), wk =   0.0104167
        k(   42) = (   0.1250000   0.2500000  -0.5000000), wk =   0.0104167
        k(   43) = (   0.1250000   0.2500000  -0.3333333), wk =   0.0104167
        k(   44) = (   0.1250000   0.2500000  -0.1666667), wk =   0.0104167
        k(   45) = (   0.1250000   0.3750000  -0.0000000), wk =   0.0104167
        k(   46) = (   0.1250000   0.3750000   0.1666667), wk =   0.0104167
        k(   47) = (   0.1250000   0.3750000   0.3333333), wk =   0.0104167
        k(   48) = (   0.1250000   0.3750000  -0.5000000), wk =   0.0104167
        k(   49) = (   0.1250000   0.3750000  -0.3333333), wk =   0.0104167
        k(   50) = (   0.1250000   0.3750000  -0.1666667), wk =   0.0104167
        k(   51) = (   0.1250000  -0.5000000   0.0000000), wk =   0.0104167
        k(   52) = (   0.1250000  -0.5000000   0.1666667), wk =   0.0104167
        k(   53) = (   0.1250000  -0.5000000   0.3333333), wk =   0.0104167
        k(   54) = (   0.1250000  -0.5000000  -0.5000000), wk =   0.0104167
        k(   55) = (   0.1250000  -0.5000000  -0.3333333), wk =   0.0104167
        k(   56) = (   0.1250000  -0.5000000  -0.1666667), wk =   0.0104167
        k(   57) = (   0.1250000  -0.3750000   0.0000000), wk =   0.0104167
        k(   58) = (   0.1250000  -0.3750000   0.1666667), wk =   0.0104167
        k(   59) = (   0.1250000  -0.3750000   0.3333333), wk =   0.0104167
        k(   60) = (   0.1250000  -0.3750000  -0.5000000), wk =   0.0104167
        k(   61) = (   0.1250000  -0.3750000  -0.3333333), wk =   0.0104167
        k(   62) = (   0.1250000  -0.3750000  -0.1666667), wk =   0.0104167
        k(   63) = (   0.1250000  -0.2500000   0.0000000), wk =   0.0104167
        k(   64) = (   0.1250000  -0.2500000   0.1666667), wk =   0.0104167
        k(   65) = (   0.1250000  -0.2500000   0.3333333), wk =   0.0104167
        k(   66) = (   0.1250000  -0.2500000  -0.5000000), wk =   0.0104167
        k(   67) = (   0.1250000  -0.2500000  -0.3333333), wk =   0.0104167
        k(   68) = (   0.1250000  -0.2500000  -0.1666667), wk =   0.0104167
        k(   69) = (   0.1250000  -0.1250000   0.0000000), wk =   0.0104167
        k(   70) = (   0.1250000  -0.1250000   0.1666667), wk =   0.0104167
        k(   71) = (   0.1250000  -0.1250000   0.3333333), wk =   0.0104167
        k(   72) = (   0.1250000  -0.1250000  -0.5000000), wk =   0.0104167
        k(   73) = (   0.1250000  -0.1250000  -0.3333333), wk =   0.0104167
        k(   74) = (   0.1250000  -0.1250000  -0.1666667), wk =   0.0104167
        k(   75) = (   0.2500000  -0.0000000   0.0000000), wk =   0.0104167
        k(   76) = (   0.2500000  -0.0000000   0.1666667), wk =   0.0104167
        k(   77) = (   0.2500000  -0.0000000   0.3333333), wk =   0.0104167
        k(   78) = (   0.2500000  -0.0000000  -0.5000000), wk =   0.0104167
        k(   79) = (   0.2500000  -0.0000000  -0.3333333), wk =   0.0104167
        k(   80) = (   0.2500000  -0.0000000  -0.1666667), wk =   0.0104167
        k(   81) = (   0.2500000   0.1250000   0.0000000), wk =   0.0104167
        k(   82) = (   0.2500000   0.1250000   0.1666667), wk =   0.0104167
        k(   83) = (   0.2500000   0.1250000   0.3333333), wk =   0.0104167
        k(   84) = (   0.2500000   0.1250000  -0.5000000), wk =   0.0104167
        k(   85) = (   0.2500000   0.1250000  -0.3333333), wk =   0.0104167
        k(   86) = (   0.2500000   0.1250000  -0.1666667), wk =   0.0104167
        k(   87) = (   0.2500000   0.2500000  -0.0000000), wk =   0.0104167
        k(   88) = (   0.2500000   0.2500000   0.1666667), wk =   0.0104167
        k(   89) = (   0.2500000   0.2500000   0.3333333), wk =   0.0104167
        k(   90) = (   0.2500000   0.2500000  -0.5000000), wk =   0.0104167
        k(   91) = (   0.2500000   0.2500000  -0.3333333), wk =   0.0104167
        k(   92) = (   0.2500000   0.2500000  -0.1666667), wk =   0.0104167
        k(   93) = (   0.2500000   0.3750000  -0.0000000), wk =   0.0104167
        k(   94) = (   0.2500000   0.3750000   0.1666667), wk =   0.0104167
        k(   95) = (   0.2500000   0.3750000   0.3333333), wk =   0.0104167
        k(   96) = (   0.2500000   0.3750000  -0.5000000), wk =   0.0104167
        k(   97) = (   0.2500000   0.3750000  -0.3333333), wk =   0.0104167
        k(   98) = (   0.2500000   0.3750000  -0.1666667), wk =   0.0104167
        k(   99) = (   0.2500000  -0.5000000   0.0000000), wk =   0.0104167
        k(  100) = (   0.2500000  -0.5000000   0.1666667), wk =   0.0104167
        k(  101) = (   0.2500000  -0.5000000   0.3333333), wk =   0.0104167
        k(  102) = (   0.2500000  -0.5000000  -0.5000000), wk =   0.0104167
        k(  103) = (   0.2500000  -0.5000000  -0.3333333), wk =   0.0104167
        k(  104) = (   0.2500000  -0.5000000  -0.1666667), wk =   0.0104167
        k(  105) = (   0.2500000  -0.3750000   0.0000000), wk =   0.0104167
        k(  106) = (   0.2500000  -0.3750000   0.1666667), wk =   0.0104167
        k(  107) = (   0.2500000  -0.3750000   0.3333333), wk =   0.0104167
        k(  108) = (   0.2500000  -0.3750000  -0.5000000), wk =   0.0104167
        k(  109) = (   0.2500000  -0.3750000  -0.3333333), wk =   0.0104167
        k(  110) = (   0.2500000  -0.3750000  -0.1666667), wk =   0.0104167
        k(  111) = (   0.2500000  -0.2500000   0.0000000), wk =   0.0104167
        k(  112) = (   0.2500000  -0.2500000   0.1666667), wk =   0.0104167
        k(  113) = (   0.2500000  -0.2500000   0.3333333), wk =   0.0104167
        k(  114) = (   0.2500000  -0.2500000  -0.5000000), wk =   0.0104167
        k(  115) = (   0.2500000  -0.2500000  -0.3333333), wk =   0.0104167
        k(  116) = (   0.2500000  -0.2500000  -0.1666667), wk =   0.0104167
        k(  117) = (   0.2500000  -0.1250000   0.0000000), wk =   0.0104167
        k(  118) = (   0.2500000  -0.1250000   0.1666667), wk =   0.0104167
        k(  119) = (   0.2500000  -0.1250000   0.3333333), wk =   0.0104167
        k(  120) = (   0.2500000  -0.1250000  -0.5000000), wk =   0.0104167
        k(  121) = (   0.2500000  -0.1250000  -0.3333333), wk =   0.0104167
        k(  122) = (   0.2500000  -0.1250000  -0.1666667), wk =   0.0104167
        k(  123) = (   0.3750000  -0.0000000   0.0000000), wk =   0.0104167
        k(  124) = (   0.3750000   0.0000000   0.1666667), wk =   0.0104167
        k(  125) = (   0.3750000   0.0000000   0.3333333), wk =   0.0104167
        k(  126) = (   0.3750000  -0.0000000  -0.5000000), wk =   0.0104167
        k(  127) = (   0.3750000  -0.0000000  -0.3333333), wk =   0.0104167
        k(  128) = (   0.3750000   0.0000000  -0.1666667), wk =   0.0104167
        k(  129) = (   0.3750000   0.1250000   0.0000000), wk =   0.0104167
        k(  130) = (   0.3750000   0.1250000   0.1666667), wk =   0.0104167
        k(  131) = (   0.3750000   0.1250000   0.3333333), wk =   0.0104167
        k(  132) = (   0.3750000   0.1250000  -0.5000000), wk =   0.0104167
        k(  133) = (   0.3750000   0.1250000  -0.3333333), wk =   0.0104167
        k(  134) = (   0.3750000   0.1250000  -0.1666667), wk =   0.0104167
        k(  135) = (   0.3750000   0.2500000   0.0000000), wk =   0.0104167
        k(  136) = (   0.3750000   0.2500000   0.1666667), wk =   0.0104167
        k(  137) = (   0.3750000   0.2500000   0.3333333), wk =   0.0104167
        k(  138) = (   0.3750000   0.2500000  -0.5000000), wk =   0.0104167
        k(  139) = (   0.3750000   0.2500000  -0.3333333), wk =   0.0104167
        k(  140) = (   0.3750000   0.2500000  -0.1666667), wk =   0.0104167
        k(  141) = (   0.3750000   0.3750000   0.0000000), wk =   0.0104167
        k(  142) = (   0.3750000   0.3750000   0.1666667), wk =   0.0104167
        k(  143) = (   0.3750000   0.3750000   0.3333333), wk =   0.0104167
        k(  144) = (   0.3750000   0.3750000  -0.5000000), wk =   0.0104167
        k(  145) = (   0.3750000   0.3750000  -0.3333333), wk =   0.0104167
        k(  146) = (   0.3750000   0.3750000  -0.1666667), wk =   0.0104167
        k(  147) = (   0.3750000  -0.5000000   0.0000000), wk =   0.0104167
        k(  148) = (   0.3750000  -0.5000000   0.1666667), wk =   0.0104167
        k(  149) = (   0.3750000  -0.5000000   0.3333333), wk =   0.0104167
        k(  150) = (   0.3750000  -0.5000000  -0.5000000), wk =   0.0104167
        k(  151) = (   0.3750000  -0.5000000  -0.3333333), wk =   0.0104167
        k(  152) = (   0.3750000  -0.5000000  -0.1666667), wk =   0.0104167
        k(  153) = (   0.3750000  -0.3750000   0.0000000), wk =   0.0104167
        k(  154) = (   0.3750000  -0.3750000   0.1666667), wk =   0.0104167
        k(  155) = (   0.3750000  -0.3750000   0.3333333), wk =   0.0104167
        k(  156) = (   0.3750000  -0.3750000  -0.5000000), wk =   0.0104167
        k(  157) = (   0.3750000  -0.3750000  -0.3333333), wk =   0.0104167
        k(  158) = (   0.3750000  -0.3750000  -0.1666667), wk =   0.0104167
        k(  159) = (   0.3750000  -0.2500000   0.0000000), wk =   0.0104167
        k(  160) = (   0.3750000  -0.2500000   0.1666667), wk =   0.0104167
        k(  161) = (   0.3750000  -0.2500000   0.3333333), wk =   0.0104167
        k(  162) = (   0.3750000  -0.2500000  -0.5000000), wk =   0.0104167
        k(  163) = (   0.3750000  -0.2500000  -0.3333333), wk =   0.0104167
        k(  164) = (   0.3750000  -0.2500000  -0.1666667), wk =   0.0104167
        k(  165) = (   0.3750000  -0.1250000   0.0000000), wk =   0.0104167
        k(  166) = (   0.3750000  -0.1250000   0.1666667), wk =   0.0104167
        k(  167) = (   0.3750000  -0.1250000   0.3333333), wk =   0.0104167
        k(  168) = (   0.3750000  -0.1250000  -0.5000000), wk =   0.0104167
        k(  169) = (   0.3750000  -0.1250000  -0.3333333), wk =   0.0104167
        k(  170) = (   0.3750000  -0.1250000  -0.1666667), wk =   0.0104167
        k(  171) = (  -0.5000000   0.0000000   0.0000000), wk =   0.0052083
        k(  172) = (  -0.5000000   0.0000000   0.1666667), wk =   0.0104167
        k(  173) = (  -0.5000000   0.0000000   0.3333333), wk =   0.0104167
        k(  174) = (  -0.5000000   0.0000000  -0.5000000), wk =   0.0052083
        k(  175) = (  -0.5000000   0.1250000  -0.0000000), wk =   0.0104167
        k(  176) = (  -0.5000000   0.1250000   0.1666667), wk =   0.0104167
        k(  177) = (  -0.5000000   0.1250000   0.3333333), wk =   0.0104167
        k(  178) = (  -0.5000000   0.1250000  -0.5000000), wk =   0.0104167
        k(  179) = (  -0.5000000   0.1250000  -0.3333333), wk =   0.0104167
        k(  180) = (  -0.5000000   0.1250000  -0.1666667), wk =   0.0104167
        k(  181) = (  -0.5000000   0.2500000  -0.0000000), wk =   0.0104167
        k(  182) = (  -0.5000000   0.2500000   0.1666667), wk =   0.0104167
        k(  183) = (  -0.5000000   0.2500000   0.3333333), wk =   0.0104167
        k(  184) = (  -0.5000000   0.2500000  -0.5000000), wk =   0.0104167
        k(  185) = (  -0.5000000   0.2500000  -0.3333333), wk =   0.0104167
        k(  186) = (  -0.5000000   0.2500000  -0.1666667), wk =   0.0104167
        k(  187) = (  -0.5000000   0.3750000  -0.0000000), wk =   0.0104167
        k(  188) = (  -0.5000000   0.3750000   0.1666667), wk =   0.0104167
        k(  189) = (  -0.5000000   0.3750000   0.3333333), wk =   0.0104167
        k(  190) = (  -0.5000000   0.3750000  -0.5000000), wk =   0.0104167
        k(  191) = (  -0.5000000   0.3750000  -0.3333333), wk =   0.0104167
        k(  192) = (  -0.5000000   0.3750000  -0.1666667), wk =   0.0104167
        k(  193) = (  -0.5000000  -0.5000000   0.0000000), wk =   0.0052083
        k(  194) = (  -0.5000000  -0.5000000   0.1666667), wk =   0.0104167
        k(  195) = (  -0.5000000  -0.5000000   0.3333333), wk =   0.0104167
        k(  196) = (  -0.5000000  -0.5000000  -0.5000000), wk =   0.0052083

     Dense  grid:    81361 G-vectors     FFT dimensions: (  48,  48,  90)

     Smooth grid:    20507 G-vectors     FFT dimensions: (  32,  32,  54)

     Largest allocated arrays     est. size (Mb)     dimensions
        Kohn-Sham Wavefunctions         0.09 Mb     (    383,   16)
        Atomic wavefunctions            0.15 Mb     (    383,   26)
        NL pseudopotentials             0.25 Mb     (    383,   43)
        Each V/rho on FFT grid          0.46 Mb     (  29952)
        Each G-vector array             0.09 Mb     (  11621)
        G-vector shells                 0.08 Mb     (  10809)
     Largest temporary arrays     est. size (Mb)     dimensions
        Auxiliary wavefunctions         0.37 Mb     (    383,   64)
        Each subspace H/S matrix        0.06 Mb     (  64,  64)
        Each <psi_i|beta_j> matrix      0.01 Mb     (     43,   16)
        Arrays for rho mixing           3.66 Mb     (  29952,   8)

     Check: negative/imaginary core charge=   -0.000011    0.000000

     Initial potential from superposition of free atoms

     starting charge   30.54925, renormalised to   32.00000
 --- in v_hubbard ---
Hubbard energy    0.6891
 -------
     Number of +U iterations with fixed ns =  0
     Starting occupations:
 --- enter write_ns ---
 LDA+U parameters:
U( 1)     =  8.92880000
alpha( 1) =  0.00000000
atom    1   Tr[ns(na)] =   7.00000
    eigenvalues: 
  0.700  0.700  0.700  0.700  0.700
    eigenvectors:
  1.000  0.000  0.000  0.000  0.000
  0.000  1.000  0.000  0.000  0.000
  0.000  0.000  1.000  0.000  0.000
  0.000  0.000  0.000  1.000  0.000
  0.000  0.000  0.000  0.000  1.000
    occupations:
  0.700  0.000  0.000  0.000  0.000
  0.000  0.700  0.000  0.000  0.000
  0.000  0.000  0.700  0.000  0.000
  0.000  0.000  0.000  0.700  0.000
  0.000  0.000  0.000  0.000  0.700
N of occupied +U levels =   7.0000000
 --- exit write_ns ---
 Atomic wfc used for LDA+U Projector are NOT orthogonalized
     Starting wfc are   26 randomized atomic wfcs

     total cpu time spent up to now is        6.2 secs

     per-process dynamical memory:    19.1 Mb

     Self-consistent Calculation

     iteration #  1     ecut=    80.00 Ry     beta=0.70
     Davidson diagonalization with overlap
     ethr =  1.00E-02,  avg # of iterations =  3.0
 --- enter write_ns ---
 LDA+U parameters:
U( 1)     =  8.92880000
alpha( 1) =  0.00000000
atom    1   Tr[ns(na)] =   4.89556
    eigenvalues: 
  0.236  0.237  0.619  0.676  0.680
    eigenvectors:
  0.000  0.000  1.000  0.000  0.000
  0.066  0.552  0.000  0.142  0.240
  0.555  0.065  0.000  0.237  0.142
  0.339  0.041  0.000  0.388  0.233
  0.041  0.342  0.000  0.233  0.385
    occupations:
  0.619  0.001  0.000  0.001  0.001
  0.001  0.406 -0.001  0.001 -0.215
  0.000 -0.001  0.404 -0.214  0.001
  0.001  0.001 -0.214  0.510 -0.001
  0.001 -0.215  0.001 -0.001  0.510
N of occupied +U levels =   4.8955599
 --- exit write_ns ---
 --- in v_hubbard ---
Hubbard energy    0.6784
 -------

     total cpu time spent up to now is       13.9 secs

     total energy              =    -369.47129637 Ry
     Harris-Foulkes estimate   =    -380.82941041 Ry
     estimated scf accuracy    <      13.50727318 Ry

     iteration #  2     ecut=    80.00 Ry     beta=0.70
     Davidson diagonalization with overlap
     ethr =  1.00E-02,  avg # of iterations =  4.0
 --- enter write_ns ---
 LDA+U parameters:
U( 1)     =  8.92880000
alpha( 1) =  0.00000000
atom    1   Tr[ns(na)] =   9.51483
    eigenvalues: 
  0.943  0.949  0.949  0.959  0.959
    eigenvectors:
  1.000  0.000  0.000  0.000  0.000
  0.000  0.360  0.509  0.064  0.068
  0.000  0.506  0.359  0.069  0.066
  0.000  0.079  0.055  0.443  0.422
  0.000  0.054  0.077  0.424  0.444
    occupations:
  0.943  0.000 -0.000 -0.000  0.000
  0.000  0.950 -0.000  0.000  0.003
 -0.000 -0.000  0.950  0.003  0.000
 -0.000  0.000  0.003  0.957  0.000
  0.000  0.003  0.000  0.000  0.957
N of occupied +U levels =   9.5148279
 --- exit write_ns ---
 --- in v_hubbard ---
Hubbard energy    0.7075
 -------

     total cpu time spent up to now is       25.8 secs

     total energy              =    -375.23549561 Ry
     Harris-Foulkes estimate   =    -397.19936292 Ry
     estimated scf accuracy    <      59.90883795 Ry

     iteration #  3     ecut=    80.00 Ry     beta=0.70
     Davidson diagonalization with overlap
     ethr =  1.00E-02,  avg # of iterations =  4.4
 --- enter write_ns ---
 LDA+U parameters:
U( 1)     =  8.92880000
alpha( 1) =  0.00000000
atom    1   Tr[ns(na)] =   9.38680
    eigenvalues: 
  0.850  0.851  0.997  0.998  0.998
    eigenvectors:
  0.000  0.000  1.000  0.000  0.000
  0.086  0.531  0.000  0.022  0.361
  0.533  0.086  0.000  0.359  0.022
  0.328  0.053  0.000  0.584  0.036
  0.053  0.330  0.000  0.036  0.581
    occupations:
  0.997  0.000  0.000  0.000  0.000
  0.000  0.907  0.000  0.000 -0.072
  0.000  0.000  0.906 -0.072  0.000
  0.000  0.000 -0.072  0.942  0.000
  0.000 -0.072  0.000  0.000  0.942
N of occupied +U levels =   9.3867974
 --- exit write_ns ---
 --- in v_hubbard ---
Hubbard energy    0.6550
 -------

     total cpu time spent up to now is       37.3 secs

     total energy              =    -379.21954284 Ry
     Harris-Foulkes estimate   =    -380.01742819 Ry
     estimated scf accuracy    <       5.68294866 Ry

     iteration #  4     ecut=    80.00 Ry     beta=0.70
     Davidson diagonalization with overlap
     ethr =  1.00E-02,  avg # of iterations =  2.8
 --- enter write_ns ---
 LDA+U parameters:
U( 1)     =  8.92880000
alpha( 1) =  0.00000000
atom    1   Tr[ns(na)] =   8.61778
    eigenvalues: 
  0.658  0.663  0.995  0.996  0.996
    eigenvectors:
  0.000  0.000  1.000  0.000  0.000
  0.009  0.620  0.000  0.006  0.365
  0.622  0.009  0.000  0.363  0.006
  0.364  0.005  0.000  0.621  0.010
  0.005  0.366  0.000  0.010  0.619
    occupations:
  0.995  0.000  0.001  0.001  0.000
  0.000  0.787  0.000  0.001 -0.161
  0.001  0.000  0.783 -0.163  0.000
  0.001  0.001 -0.163  0.871  0.000
  0.000 -0.161  0.000  0.000  0.873
N of occupied +U levels =   8.6177845
 --- exit write_ns ---
 --- in v_hubbard ---
Hubbard energy    0.5457
 -------

     total cpu time spent up to now is       44.4 secs

     total energy              =    -379.35295180 Ry
     Harris-Foulkes estimate   =    -379.44534362 Ry
     estimated scf accuracy    <       1.05489773 Ry

     iteration #  5     ecut=    80.00 Ry     beta=0.70
     Davidson diagonalization with overlap
     ethr =  3.30E-03,  avg # of iterations =  3.2
 --- enter write_ns ---
 LDA+U parameters:
U( 1)     =  8.92880000
alpha( 1) =  0.00000000
atom    1   Tr[ns(na)] =   7.97833
    eigenvalues: 
  0.500  0.505  0.994  0.995  0.995
    eigenvectors:
  0.000  0.000  0.993  0.007  0.000
  0.466  0.162  0.002  0.276  0.094
  0.162  0.469  0.000  0.092  0.276
  0.095  0.273  0.000  0.158  0.473
  0.276  0.096  0.004  0.467  0.157
    occupations:
  0.994  0.000  0.001  0.001  0.000
  0.000  0.685  0.001  0.001 -0.238
  0.001  0.001  0.685 -0.237  0.001
  0.001  0.001 -0.237  0.814  0.001
  0.000 -0.238  0.001  0.001  0.811
N of occupied +U levels =   7.9783264
 --- exit write_ns ---
 --- in v_hubbard ---
Hubbard energy    0.4887
 -------

     total cpu time spent up to now is       52.1 secs

     total energy              =    -379.55141690 Ry
     Harris-Foulkes estimate   =    -379.52396142 Ry
     estimated scf accuracy    <       0.08767535 Ry

     iteration #  6     ecut=    80.00 Ry     beta=0.70
     Davidson diagonalization with overlap
     ethr =  2.74E-04,  avg # of iterations =  3.2
 --- enter write_ns ---
 LDA+U parameters:
U( 1)     =  8.92880000
alpha( 1) =  0.00000000
atom    1   Tr[ns(na)] =   8.12255
    eigenvalues: 
  0.535  0.537  0.996  0.996  0.996
    eigenvectors:
  0.000  0.000  1.000  0.000  0.000
  0.235  0.394  0.000  0.060  0.311
  0.396  0.236  0.000  0.308  0.060
  0.231  0.137  0.000  0.529  0.103
  0.138  0.233  0.000  0.103  0.526
    occupations:
  0.996  0.000  0.001  0.001  0.000
  0.000  0.707  0.000  0.001 -0.222
  0.001  0.000  0.705 -0.222  0.000
  0.001  0.001 -0.222  0.827  0.000
  0.000 -0.222  0.000  0.000  0.826
N of occupied +U levels =   8.1225548
 --- exit write_ns ---
 --- in v_hubbard ---
Hubbard energy    0.3355
 -------

     total cpu time spent up to now is       60.7 secs

     total energy              =    -379.55011675 Ry
     Harris-Foulkes estimate   =    -379.57694138 Ry
     estimated scf accuracy    <       0.22249679 Ry

     iteration #  7     ecut=    80.00 Ry     beta=0.70
     Davidson diagonalization with overlap
     ethr =  2.74E-04,  avg # of iterations =  3.5
 --- enter write_ns ---
 LDA+U parameters:
U( 1)     =  8.92880000
alpha( 1) =  0.00000000
atom    1   Tr[ns(na)] =   7.80177
    eigenvalues: 
  0.455  0.457  0.996  0.996  0.996
    eigenvectors:
  0.000  0.000  0.001  0.005  0.994
  0.301  0.333  0.071  0.293  0.002
  0.334  0.303  0.293  0.070  0.000
  0.191  0.172  0.514  0.123  0.000
  0.174  0.192  0.122  0.509  0.004
    occupations:
  0.996  0.000  0.001  0.001  0.000
  0.000  0.654  0.000  0.001 -0.260
  0.001  0.000  0.652 -0.260  0.000
  0.001  0.001 -0.260  0.800  0.000
  0.000 -0.260  0.000  0.000  0.799
N of occupied +U levels =   7.8017696
 --- exit write_ns ---
 --- in v_hubbard ---
Hubbard energy    0.3377
 -------

     total cpu time spent up to now is       69.1 secs

     total energy              =    -379.56700655 Ry
     Harris-Foulkes estimate   =    -379.56838934 Ry
     estimated scf accuracy    <       0.00420897 Ry

     iteration #  8     ecut=    80.00 Ry     beta=0.70
     Davidson diagonalization with overlap
     ethr =  1.32E-05,  avg # of iterations =  3.7
 --- enter write_ns ---
 LDA+U parameters:
U( 1)     =  8.92880000
alpha( 1) =  0.00000000
atom    1   Tr[ns(na)] =   7.74958
    eigenvalues: 
  0.443  0.444  0.996  0.996  0.996
    eigenvectors:
  0.000  0.000  0.556  0.165  0.279
  0.421  0.214  0.098  0.008  0.259
  0.215  0.423  0.065  0.293  0.004
  0.122  0.240  0.112  0.520  0.006
  0.242  0.123  0.170  0.014  0.451
    occupations:
  0.996 -0.000  0.001  0.001 -0.000
 -0.000  0.645  0.000  0.000 -0.266
  0.001  0.000  0.643 -0.265  0.000
  0.001  0.000 -0.265  0.796  0.000
 -0.000 -0.266  0.000  0.000  0.794
N of occupied +U levels =   7.7495796
 --- exit write_ns ---
 --- in v_hubbard ---
Hubbard energy    0.3384
 -------

     total cpu time spent up to now is       78.4 secs

     total energy              =    -379.56944276 Ry
     Harris-Foulkes estimate   =    -379.57004932 Ry
     estimated scf accuracy    <       0.00211615 Ry

     iteration #  9     ecut=    80.00 Ry     beta=0.70
     Davidson diagonalization with overlap
     ethr =  6.61E-06,  avg # of iterations =  3.1
 --- enter write_ns ---
 LDA+U parameters:
U( 1)     =  8.92880000
alpha( 1) =  0.00000000
atom    1   Tr[ns(na)] =   7.74980
    eigenvalues: 
  0.443  0.444  0.996  0.996  0.996
    eigenvectors:
  0.000  0.000  0.003  0.012  0.984
  0.421  0.214  0.067  0.292  0.006
  0.215  0.424  0.294  0.067  0.000
  0.122  0.240  0.520  0.119  0.000
  0.242  0.123  0.116  0.509  0.010
    occupations:
  0.996 -0.000  0.001  0.001 -0.000
 -0.000  0.645  0.000  0.000 -0.266
  0.001  0.000  0.643 -0.265  0.000
  0.001  0.000 -0.265  0.796  0.000
 -0.000 -0.266  0.000  0.000  0.794
N of occupied +U levels =   7.7498043
 --- exit write_ns ---
 --- in v_hubbard ---
Hubbard energy    0.3325
 -------

     total cpu time spent up to now is       86.1 secs

     total energy              =    -379.56975038 Ry
     Harris-Foulkes estimate   =    -379.56974266 Ry
     estimated scf accuracy    <       0.00023751 Ry

     iteration # 10     ecut=    80.00 Ry     beta=0.70
     Davidson diagonalization with overlap
     ethr =  7.42E-07,  avg # of iterations =  3.1
 --- enter write_ns ---
 LDA+U parameters:
U( 1)     =  8.92880000
alpha( 1) =  0.00000000
atom    1   Tr[ns(na)] =   7.75583
    eigenvalues: 
  0.445  0.445  0.996  0.996  0.996
    eigenvectors:
  0.000  0.000  0.073  0.008  0.919
  0.579  0.058  0.268  0.067  0.029
  0.058  0.582  0.069  0.291  0.001
  0.033  0.327  0.121  0.518  0.001
  0.331  0.033  0.469  0.117  0.050
    occupations:
  0.996 -0.000  0.001  0.001 -0.000
 -0.000  0.645  0.000  0.000 -0.265
  0.001  0.000  0.643 -0.265 -0.000
  0.001  0.000 -0.265  0.798  0.000
 -0.000 -0.265 -0.000  0.000  0.796
N of occupied +U levels =   7.7558278
 --- exit write_ns ---
 --- in v_hubbard ---
Hubbard energy    0.3315
 -------

     total cpu time spent up to now is       94.9 secs

     total energy              =    -379.56979492 Ry
     Harris-Foulkes estimate   =    -379.56982700 Ry
     estimated scf accuracy    <       0.00021539 Ry

     iteration # 11     ecut=    80.00 Ry     beta=0.70
     Davidson diagonalization with overlap
     ethr =  6.73E-07,  avg # of iterations =  1.0
 --- enter write_ns ---
 LDA+U parameters:
U( 1)     =  8.92880000
alpha( 1) =  0.00000000
atom    1   Tr[ns(na)] =   7.75456
    eigenvalues: 
  0.444  0.445  0.996  0.996  0.996
    eigenvectors:
  0.000  0.000  0.069  0.007  0.924
  0.554  0.083  0.260  0.076  0.027
  0.083  0.557  0.078  0.281  0.001
  0.047  0.313  0.138  0.501  0.002
  0.316  0.047  0.455  0.134  0.047
    occupations:
  0.996 -0.000  0.001  0.001 -0.000
 -0.000  0.645  0.000  0.000 -0.265
  0.001  0.000  0.643 -0.265 -0.000
  0.001  0.000 -0.265  0.798  0.000
 -0.000 -0.265 -0.000  0.000  0.796
N of occupied +U levels =   7.7545556
 --- exit write_ns ---
 --- in v_hubbard ---
Hubbard energy    0.3318
 -------

     total cpu time spent up to now is      101.1 secs

     total energy              =    -379.56978204 Ry
     Harris-Foulkes estimate   =    -379.56980228 Ry
     estimated scf accuracy    <       0.00006395 Ry

     iteration # 12     ecut=    80.00 Ry     beta=0.70
     Davidson diagonalization with overlap
     ethr =  2.00E-07,  avg # of iterations =  3.0
 --- enter write_ns ---
 LDA+U parameters:
U( 1)     =  8.92880000
alpha( 1) =  0.00000000
atom    1   Tr[ns(na)] =   7.74393
    eigenvalues: 
  0.442  0.442  0.996  0.996  0.996
    eigenvectors:
  0.000  0.000  0.000  0.000  1.000
  0.551  0.086  0.110  0.253  0.000
  0.086  0.554  0.250  0.109  0.000
  0.048  0.311  0.446  0.194  0.000
  0.314  0.049  0.193  0.444  0.000
    occupations:
  0.996 -0.000  0.001  0.001 -0.000
 -0.000  0.643  0.000  0.000 -0.266
  0.001  0.000  0.641 -0.266 -0.000
  0.001  0.000 -0.266  0.797  0.000
 -0.000 -0.266 -0.000  0.000  0.795
N of occupied +U levels =   7.7439322
 --- exit write_ns ---
 --- in v_hubbard ---
Hubbard energy    0.3316
 -------

     total cpu time spent up to now is      109.9 secs

     total energy              =    -379.56979898 Ry
     Harris-Foulkes estimate   =    -379.56980588 Ry
     estimated scf accuracy    <       0.00004055 Ry

     iteration # 13     ecut=    80.00 Ry     beta=0.70
     Davidson diagonalization with overlap
     ethr =  1.27E-07,  avg # of iterations =  1.6
 --- enter write_ns ---
 LDA+U parameters:
U( 1)     =  8.92880000
alpha( 1) =  0.00000000
atom    1   Tr[ns(na)] =   7.74533
    eigenvalues: 
  0.442  0.442  0.996  0.996  0.996
    eigenvectors:
  0.000  0.000  0.000  0.000  1.000
  0.636  0.001  0.081  0.282  0.000
  0.001  0.640  0.279  0.080  0.000
  0.001  0.359  0.498  0.143  0.000
  0.362  0.001  0.142  0.495  0.000
    occupations:
  0.996 -0.000  0.001  0.001 -0.000
 -0.000  0.643 -0.000  0.000 -0.266
  0.001 -0.000  0.641 -0.266 -0.000
  0.001  0.000 -0.266  0.797  0.000
 -0.000 -0.266 -0.000  0.000  0.795
N of occupied +U levels =   7.7453259
 --- exit write_ns ---
 --- in v_hubbard ---
Hubbard energy    0.3316
 -------

     total cpu time spent up to now is      116.2 secs

     total energy              =    -379.56979933 Ry
     Harris-Foulkes estimate   =    -379.56980084 Ry
     estimated scf accuracy    <       0.00000707 Ry

     iteration # 14     ecut=    80.00 Ry     beta=0.70
     Davidson diagonalization with overlap
     ethr =  2.21E-08,  avg # of iterations =  3.2
 --- enter write_ns ---
 LDA+U parameters:
U( 1)     =  8.92880000
alpha( 1) =  0.00000000
atom    1   Tr[ns(na)] =   7.74845
    eigenvalues: 
  0.443  0.443  0.996  0.996  0.996
    eigenvectors:
  0.000  0.000  0.000  0.000  1.000
  0.595  0.042  0.080  0.283  0.000
  0.042  0.598  0.280  0.079  0.000
  0.024  0.335  0.499  0.142  0.000
  0.339  0.024  0.141  0.496  0.000
    occupations:
  0.996 -0.000  0.001  0.001 -0.000
 -0.000  0.644 -0.000  0.000 -0.266
  0.001 -0.000  0.642 -0.265 -0.000
  0.001  0.000 -0.265  0.797  0.000
 -0.000 -0.266 -0.000  0.000  0.795
N of occupied +U levels =   7.7484484
 --- exit write_ns ---
 --- in v_hubbard ---
Hubbard energy    0.3316
 -------

     total cpu time spent up to now is      124.9 secs

     total energy              =    -379.56980152 Ry
     Harris-Foulkes estimate   =    -379.56980149 Ry
     estimated scf accuracy    <       0.00000096 Ry

     iteration # 15     ecut=    80.00 Ry     beta=0.70
     Davidson diagonalization with overlap
     ethr =  2.99E-09,  avg # of iterations =  1.0
 --- enter write_ns ---
 LDA+U parameters:
U( 1)     =  8.92880000
alpha( 1) =  0.00000000
atom    1   Tr[ns(na)] =   7.74844
    eigenvalues: 
  0.443  0.443  0.996  0.996  0.996
    eigenvectors:
  0.000  0.000  0.000  0.000  1.000
  0.621  0.016  0.023  0.340  0.000
  0.016  0.625  0.337  0.023  0.000
  0.009  0.350  0.601  0.040  0.000
  0.354  0.009  0.040  0.597  0.000
    occupations:
  0.996 -0.000  0.001  0.001 -0.000
 -0.000  0.644 -0.000  0.000 -0.266
  0.001 -0.000  0.642 -0.265 -0.000
  0.001  0.000 -0.265  0.797  0.000
 -0.000 -0.266 -0.000  0.000  0.795
N of occupied +U levels =   7.7484431
 --- exit write_ns ---
 --- in v_hubbard ---
Hubbard energy    0.3316
 -------

     total cpu time spent up to now is      131.1 secs

     total energy              =    -379.56980135 Ry
     Harris-Foulkes estimate   =    -379.56980153 Ry
     estimated scf accuracy    <       0.00000088 Ry

     iteration # 16     ecut=    80.00 Ry     beta=0.70
     Davidson diagonalization with overlap
     ethr =  2.75E-09,  avg # of iterations =  2.5
 --- enter write_ns ---
 LDA+U parameters:
U( 1)     =  8.92880000
alpha( 1) =  0.00000000
atom    1   Tr[ns(na)] =   7.74797
    eigenvalues: 
  0.443  0.443  0.996  0.996  0.996
    eigenvectors:
  0.000  0.000  0.000  0.000  1.000
  0.600  0.037  0.222  0.141  0.000
  0.037  0.604  0.140  0.220  0.000
  0.021  0.338  0.249  0.392  0.000
  0.342  0.021  0.390  0.248  0.000
    occupations:
  0.996 -0.000  0.001  0.001 -0.000
 -0.000  0.644 -0.000  0.000 -0.266
  0.001 -0.000  0.642 -0.265 -0.000
  0.001  0.000 -0.265  0.797  0.000
 -0.000 -0.266 -0.000  0.000  0.795
N of occupied +U levels =   7.7479736
 --- exit write_ns ---
 --- in v_hubbard ---
Hubbard energy    0.3316
 -------

     total cpu time spent up to now is      138.3 secs

     total energy              =    -379.56980143 Ry
     Harris-Foulkes estimate   =    -379.56980143 Ry
     estimated scf accuracy    <       0.00000004 Ry

     iteration # 17     ecut=    80.00 Ry     beta=0.70
     Davidson diagonalization with overlap
     ethr =  1.15E-10,  avg # of iterations =  3.8
 --- enter write_ns ---
 LDA+U parameters:
U( 1)     =  8.92880000
alpha( 1) =  0.00000000
atom    1   Tr[ns(na)] =   7.74785
    eigenvalues: 
  0.443  0.443  0.996  0.996  0.996
    eigenvectors:
  0.000  0.000  0.000  0.000  1.000
  0.611  0.026  0.008  0.355  0.000
  0.026  0.615  0.351  0.008  0.000
  0.015  0.344  0.627  0.014  0.000
  0.348  0.015  0.014  0.624  0.000
    occupations:
  0.996 -0.000  0.001  0.001 -0.000
 -0.000  0.644 -0.000  0.000 -0.266
  0.001 -0.000  0.642 -0.265 -0.000
  0.001  0.000 -0.265  0.797  0.000
 -0.000 -0.266 -0.000  0.000  0.795
N of occupied +U levels =   7.7478528
 --- exit write_ns ---
 --- in v_hubbard ---
Hubbard energy    0.3316
 -------

     total cpu time spent up to now is      147.4 secs

     total energy              =    -379.56980144 Ry
     Harris-Foulkes estimate   =    -379.56980144 Ry
     estimated scf accuracy    <          6.3E-09 Ry

     iteration # 18     ecut=    80.00 Ry     beta=0.70
     Davidson diagonalization with overlap
     ethr =  1.96E-11,  avg # of iterations =  2.9
 --- enter write_ns ---
 LDA+U parameters:
U( 1)     =  8.92880000
alpha( 1) =  0.00000000
atom    1   Tr[ns(na)] =   7.74786
    eigenvalues: 
  0.443  0.443  0.996  0.996  0.996
    eigenvectors:
  0.000  0.000  0.000  0.000  1.000
  0.603  0.034  0.017  0.346  0.000
  0.034  0.607  0.343  0.016  0.000
  0.019  0.340  0.612  0.029  0.000
  0.343  0.019  0.029  0.608  0.000
    occupations:
  0.996 -0.000  0.001  0.001 -0.000
 -0.000  0.644 -0.000  0.000 -0.266
  0.001 -0.000  0.641 -0.265 -0.000
  0.001  0.000 -0.265  0.797  0.000
 -0.000 -0.266 -0.000  0.000  0.795
N of occupied +U levels =   7.7478644
 --- exit write_ns ---
 --- in v_hubbard ---
Hubbard energy    0.3316
 -------

     total cpu time spent up to now is      154.5 secs

     total energy              =    -379.56980144 Ry
     Harris-Foulkes estimate   =    -379.56980144 Ry
     estimated scf accuracy    <          2.6E-09 Ry

     iteration # 19     ecut=    80.00 Ry     beta=0.70
     Davidson diagonalization with overlap
     ethr =  8.14E-12,  avg # of iterations =  3.8
 --- enter write_ns ---
 LDA+U parameters:
U( 1)     =  8.92880000
alpha( 1) =  0.00000000
atom    1   Tr[ns(na)] =   7.74787
    eigenvalues: 
  0.443  0.443  0.996  0.996  0.996
    eigenvectors:
  0.000  0.000  0.000  0.000  1.000
  0.085  0.552  0.160  0.202  0.000
  0.555  0.086  0.200  0.159  0.000
  0.311  0.048  0.358  0.283  0.000
  0.048  0.314  0.282  0.356  0.000
    occupations:
  0.996 -0.000  0.001  0.001 -0.000
 -0.000  0.644 -0.000  0.000 -0.266
  0.001 -0.000  0.641 -0.265 -0.000
  0.001  0.000 -0.265  0.797  0.000
 -0.000 -0.266 -0.000  0.000  0.795
N of occupied +U levels =   7.7478668
 --- exit write_ns ---
 --- in v_hubbard ---
Hubbard energy    0.3316
 -------

     total cpu time spent up to now is      164.2 secs

     total energy              =    -379.56980144 Ry
     Harris-Foulkes estimate   =    -379.56980144 Ry
     estimated scf accuracy    <          2.9E-10 Ry

     iteration # 20     ecut=    80.00 Ry     beta=0.70
     Davidson diagonalization with overlap
     ethr =  9.19E-13,  avg # of iterations =  3.0
 --- enter write_ns ---
 LDA+U parameters:
U( 1)     =  8.92880000
alpha( 1) =  0.00000000
atom    1   Tr[ns(na)] =   7.74786
    eigenvalues: 
  0.443  0.443  0.996  0.996  0.996
    eigenvectors:
  0.000  0.000  0.000  0.000  1.000
  0.003  0.635  0.064  0.298  0.000
  0.638  0.003  0.295  0.064  0.000
  0.358  0.001  0.527  0.114  0.000
  0.001  0.361  0.113  0.524  0.000
    occupations:
  0.996 -0.000  0.001  0.001 -0.000
 -0.000  0.643 -0.000  0.000 -0.266
  0.001 -0.000  0.641 -0.265 -0.000
  0.001  0.000 -0.265  0.797  0.000
 -0.000 -0.266 -0.000  0.000  0.795
N of occupied +U levels =   7.7478624
 --- exit write_ns ---
 --- in v_hubbard ---
Hubbard energy    0.3316
 -------

     total cpu time spent up to now is      172.2 secs

     total energy              =    -379.56980144 Ry
     Harris-Foulkes estimate   =    -379.56980144 Ry
     estimated scf accuracy    <          6.4E-11 Ry

     iteration # 21     ecut=    80.00 Ry     beta=0.70
     Davidson diagonalization with overlap
     ethr =  2.00E-13,  avg # of iterations =  3.2
 --- enter write_ns ---
 LDA+U parameters:
U( 1)     =  8.92880000
alpha( 1) =  0.00000000
atom    1   Tr[ns(na)] =   7.74785
    eigenvalues: 
  0.443  0.443  0.996  0.996  0.996
    eigenvectors:
  0.000  0.000  0.000  0.000  1.000
  0.011  0.627  0.083  0.280  0.000
  0.630  0.011  0.277  0.082  0.000
  0.353  0.006  0.494  0.147  0.000
  0.006  0.357  0.146  0.491  0.000
    occupations:
  0.996 -0.000  0.001  0.001 -0.000
 -0.000  0.643 -0.000  0.000 -0.266
  0.001 -0.000  0.641 -0.265 -0.000
  0.001  0.000 -0.265  0.797  0.000
 -0.000 -0.266 -0.000  0.000  0.795
N of occupied +U levels =   7.7478542
 --- exit write_ns ---
 --- in v_hubbard ---
Hubbard energy    0.3316
 -------

     total cpu time spent up to now is      182.3 secs

     total energy              =    -379.56980144 Ry
     Harris-Foulkes estimate   =    -379.56980144 Ry
     estimated scf accuracy    <          3.2E-11 Ry

     iteration # 22     ecut=    80.00 Ry     beta=0.70
     Davidson diagonalization with overlap
     ethr =  1.01E-13,  avg # of iterations =  3.2
 --- enter write_ns ---
 LDA+U parameters:
U( 1)     =  8.92880000
alpha( 1) =  0.00000000
atom    1   Tr[ns(na)] =   7.74786
    eigenvalues: 
  0.443  0.443  0.996  0.996  0.996
    eigenvectors:
  0.000  0.000  0.000  0.000  1.000
  0.093  0.545  0.093  0.270  0.000
  0.548  0.093  0.267  0.092  0.000
  0.307  0.052  0.478  0.164  0.000
  0.053  0.310  0.163  0.475  0.000
    occupations:
  0.996 -0.000  0.001  0.001 -0.000
 -0.000  0.643 -0.000  0.000 -0.266
  0.001 -0.000  0.641 -0.265 -0.000
  0.001  0.000 -0.265  0.797  0.000
 -0.000 -0.266 -0.000  0.000  0.795
N of occupied +U levels =   7.7478570
 --- exit write_ns ---
 --- in v_hubbard ---
Hubbard energy    0.3316
 -------

     total cpu time spent up to now is      193.7 secs

     total energy              =    -379.56980144 Ry
     Harris-Foulkes estimate   =    -379.56980144 Ry
     estimated scf accuracy    <          4.4E-12 Ry

     iteration # 23     ecut=    80.00 Ry     beta=0.70
     Davidson diagonalization with overlap
     ethr =  1.00E-13,  avg # of iterations =  2.6
 --- enter write_ns ---
 LDA+U parameters:
U( 1)     =  8.92880000
alpha( 1) =  0.00000000
atom    1   Tr[ns(na)] =   7.74786
    eigenvalues: 
  0.443  0.443  0.996  0.996  0.996
    eigenvectors:
  0.000  0.000  0.000  0.000  1.000
  0.106  0.532  0.080  0.282  0.000
  0.535  0.106  0.280  0.079  0.000
  0.300  0.059  0.499  0.142  0.000
  0.060  0.303  0.141  0.496  0.000
    occupations:
  0.996 -0.000  0.001  0.001 -0.000
 -0.000  0.644 -0.000  0.000 -0.266
  0.001 -0.000  0.641 -0.265 -0.000
  0.001  0.000 -0.265  0.797  0.000
 -0.000 -0.266 -0.000  0.000  0.795
N of occupied +U levels =   7.7478562
 --- exit write_ns ---
 --- in v_hubbard ---
Hubbard energy    0.3316
 -------

     total cpu time spent up to now is      201.2 secs

     total energy              =    -379.56980144 Ry
     Harris-Foulkes estimate   =    -379.56980144 Ry
     estimated scf accuracy    <          7.7E-12 Ry

     iteration # 24     ecut=    80.00 Ry     beta=0.70
     Davidson diagonalization with overlap
     ethr =  1.00E-13,  avg # of iterations =  1.9
 --- enter write_ns ---
 LDA+U parameters:
U( 1)     =  8.92880000
alpha( 1) =  0.00000000
atom    1   Tr[ns(na)] =   7.74786
    eigenvalues: 
  0.443  0.443  0.996  0.996  0.996
    eigenvectors:
  0.000  0.000  0.000  0.000  1.000
  0.075  0.562  0.131  0.232  0.000
  0.566  0.075  0.229  0.130  0.000
  0.317  0.042  0.410  0.231  0.000
  0.043  0.320  0.230  0.407  0.000
    occupations:
  0.996 -0.000  0.001  0.001 -0.000
 -0.000  0.644 -0.000  0.000 -0.266
  0.001 -0.000  0.641 -0.265 -0.000
  0.001  0.000 -0.265  0.797  0.000
 -0.000 -0.266 -0.000  0.000  0.795
N of occupied +U levels =   7.7478571
 --- exit write_ns ---
 --- in v_hubbard ---
Hubbard energy    0.3316
 -------

     total cpu time spent up to now is      207.8 secs

     End of self-consistent calculation

          k = 0.0000 0.0000 0.0000 (  2527 PWs)   bands (ev):

   -83.9627 -47.4125 -47.4125 -47.3047 -33.0879  -9.3130  -7.3174   1.7524
     4.2044   4.2045   6.8666   6.8666   8.2356   8.8255   8.8531   8.8532

     occupation numbers 
     1.0000   1.0000   1.0000   1.0000   1.0000   1.0000   1.0000   1.0000
     1.0000   1.0000   1.0000   1.0000   1.0000   1.0000   1.0000   1.0000

          k = 0.0000-0.0002 0.1084 (  2566 PWs)   bands (ev):

   -83.9628 -47.4125 -47.4125 -47.3047 -33.0867  -9.2865  -7.3756   1.9234
     4.2028   4.2029   6.8793   6.8794   7.9812   8.8201   8.8333   8.8333

     occupation numbers 
     1.0000   1.0000   1.0000   1.0000   1.0000   1.0000   1.0000   1.0000
     1.0000   1.0000   1.0000   1.0000   1.0000   1.0000   1.0000   1.0000

          k = 0.0000-0.0004 0.2168 (  2569 PWs)   bands (ev):

   -83.9629 -47.4125 -47.4125 -47.3047 -33.0844  -9.2298  -7.4939   2.2968
     4.1996   4.1996   6.9058   6.9058   7.4699   8.7924   8.7927   8.7927

     occupation numbers 
     1.0000   1.0000   1.0000   1.0000   1.0000   1.0000   1.0000   1.0000
     1.0000   1.0000   1.0000   1.0000   1.0000   1.0000   1.0000   1.0000

          k =-0.0000 0.0006-0.3252 (  2598 PWs)   bands (ev):

   -83.9630 -47.4125 -47.4125 -47.3048 -33.0833  -9.1992  -7.5544   2.5050
     4.1980   4.1980   6.9195   6.9195   7.2011   8.7719   8.7719   8.7754

     occupation numbers 
     1.0000   1.0000   1.0000   1.0000   1.0000   1.0000   1.0000   1.0000
     1.0000   1.0000   1.0000   1.0000   1.0000   1.0000   1.0000   1.0000

          k =-0.1331 0.0769-0.0269 (  2574 PWs)   bands (ev):

   -83.9604 -47.4250 -47.4154 -47.3029 -33.0814  -9.1112  -7.2871   2.0371
     3.8051   4.4130   6.5715   6.5771   7.8594   8.7336   8.9268   9.0040

     occupation numbers 
     1.0000   1.0000   1.0000   1.0000   1.0000   1.0000   1.0000   1.0000
     1.0000   1.0000   1.0000   1.0000   1.0000   1.0000   1.0000   1.0000

          k =-0.1331 0.0767 0.0815 (  2577 PWs)   bands (ev):

   -83.9605 -47.4251 -47.4154 -47.3029 -33.0811  -9.0975  -7.3148   2.1245
     3.7972   4.4054   6.5226   6.5973   7.8919   8.5304   8.9238   9.1042

     occupation numbers 
     1.0000   1.0000   1.0000   1.0000   1.0000   1.0000   1.0000   1.0000
     1.0000   1.0000   1.0000   1.0000   1.0000   1.0000   1.0000   1.0000

          k =-0.1330 0.0765 0.1899 (  2585 PWs)   bands (ev):

   -83.9606 -47.4251 -47.4154 -47.3029 -33.0794  -9.0406  -7.4247   2.4693
     3.7679   4.3980   6.4542   6.6354   7.8765   8.0786   8.8672   9.1834

     occupation numbers 
     1.0000   1.0000   1.0000   1.0000   1.0000   1.0000   1.0000   1.0000
     1.0000   1.0000   1.0000   1.0000   1.0000   1.0000   1.0000   1.0000

          k =-0.1331 0.0775-0.3522 (  2596 PWs)   bands (ev):

   -83.9606 -47.4251 -47.4154 -47.3029 -33.0781  -8.9941  -7.5093   2.7568
     3.7388   4.3981   6.4057   6.6541   7.7447   7.8922   8.8137   9.1946

     occupation numbers 
     1.0000   1.0000   1.0000   1.0000   1.0000   1.0000   1.0000   1.0000
     1.0000   1.0000   1.0000   1.0000   1.0000   1.0000   1.0000   1.0000

          k =-0.1331 0.0773-0.2438 (  2593 PWs)   bands (ev):

   -83.9606 -47.4251 -47.4154 -47.3029 -33.0785  -9.0105  -7.4797   2.6360
     3.7643   4.4057   6.4808   6.6330   7.6904   8.0099   8.8182   9.1908

     occupation numbers 
     1.0000   1.0000   1.0000   1.0000   1.0000   1.0000   1.0000   1.0000
     1.0000   1.0000   1.0000   1.0000   1.0000   1.0000   1.0000   1.0000

          k =-0.1331 0.0771-0.1354 (  2586 PWs)   bands (ev):

   -83.9605 -47.4251 -47.4154 -47.3029 -33.0801  -9.0703  -7.3677   2.2703
     3.7949   4.4132   6.5726   6.5942   7.7742   8.3560   8.8746   9.1416

     occupation numbers 
     1.0000   1.0000   1.0000   1.0000   1.0000   1.0000   1.0000   1.0000
     1.0000   1.0000   1.0000   1.0000   1.0000   1.0000   1.0000   1.0000

          k =-0.2661 0.1537-0.0539 (  2583 PWs)   bands (ev):

   -83.9564 -47.4542 -47.4223 -47.2984 -33.0657  -8.5823  -7.2305   2.6051
     3.1391   4.9325   5.7369   6.1147   7.4444   8.2705   8.7924   8.9156

     occupation numbers 
     1.0000   1.0000   1.0000   1.0000   1.0000   1.0000   1.0000   1.0000
     1.0000   1.0000   1.0000   1.0000   1.0000   1.0000   1.0000   1.0000

          k =-0.2661 0.1535 0.0545 (  2580 PWs)   bands (ev):

   -83.9564 -47.4542 -47.4223 -47.2984 -33.0664  -8.5876  -7.2223   2.7080
     3.0142   4.9293   5.6382   6.1255   7.5651   8.4091   8.7827   8.7910

     occupation numbers 
     1.0000   1.0000   1.0000   1.0000   1.0000   1.0000   1.0000   1.0000
     1.0000   1.0000   1.0000   1.0000   1.0000   1.0000   1.0000   1.0000

          k =-0.2661 0.1533 0.1629 (  2578 PWs)   bands (ev):

   -83.9565 -47.4542 -47.4223 -47.2984 -33.0664  -8.5357  -7.3031   2.8404
     3.1075   4.9130   5.4662   6.1815   7.5772   8.2765   8.7085   8.8852

     occupation numbers 
     1.0000   1.0000   1.0000   1.0000   1.0000   1.0000   1.0000   1.0000
     1.0000   1.0000   1.0000   1.0000   1.0000   1.0000   1.0000   1.0000

          k =-0.2661 0.1544-0.3791 (  2580 PWs)   bands (ev):

   -83.9565 -47.4543 -47.4223 -47.2985 -33.0656  -8.4707  -7.3993   2.7843
     3.4581   4.9003   5.3338   6.2279   7.4300   8.2037   8.6272   8.9601

     occupation numbers 
     1.0000   1.0000   1.0000   1.0000   1.0000   1.0000   1.0000   1.0000
     1.0000   1.0000   1.0000   1.0000   1.0000   1.0000   1.0000   1.0000

          k =-0.2661 0.1542-0.2707 (  2584 PWs)   bands (ev):

   -83.9565 -47.4543 -47.4223 -47.2985 -33.0649  -8.4637  -7.4092   2.7088
     3.5683   4.9031   5.4084   6.2168   7.3067   8.1556   8.6295   9.0136

     occupation numbers 
     1.0000   1.0000   1.0000   1.0000   1.0000   1.0000   1.0000   1.0000
     1.0000   1.0000   1.0000   1.0000   1.0000   1.0000   1.0000   1.0000

          k =-0.2661 0.1539-0.1623 (  2585 PWs)   bands (ev):

   -83.9565 -47.4543 -47.4223 -47.2984 -33.0650  -8.5238  -7.3209   2.6371
     3.3645   4.9190   5.6442   6.1596   7.3236   8.1390   8.7121   9.0305

     occupation numbers 
     1.0000   1.0000   1.0000   1.0000   1.0000   1.0000   1.0000   1.0000
     1.0000   1.0000   1.0000   1.0000   1.0000   1.0000   1.0000   1.0000

          k =-0.3992 0.2306-0.0808 (  2566 PWs)   bands (ev):

   -83.9544 -47.4819 -47.4290 -47.2939 -33.0499  -7.9365  -7.2382   1.9372
     3.7522   5.1743   5.1950   6.3242   7.1892   7.6406   8.1973   8.4547

     occupation numbers 
     1.0000   1.0000   1.0000   1.0000   1.0000   1.0000   1.0000   1.0000
     1.0000   1.0000   1.0000   1.0000   1.0000   1.0000   1.0000   1.0000

          k =-0.3992 0.2304 0.0276 (  2578 PWs)   bands (ev):

   -83.9544 -47.4819 -47.4290 -47.2938 -33.0512  -7.9656  -7.2003   1.9525
     3.6862   5.0877   5.2112   6.2762   7.3802   7.7212   8.1993   8.3149

     occupation numbers 
     1.0000   1.0000   1.0000   1.0000   1.0000   1.0000   1.0000   1.0000
     1.0000   1.0000   1.0000   1.0000   1.0000   1.0000   1.0000   1.0000

          k =-0.3992 0.2302 0.1360 (  2565 PWs)   bands (ev):

   -83.9545 -47.4819 -47.4290 -47.2939 -33.0528  -7.9368  -7.2327   1.9216
     3.8501   4.8529   5.2369   6.2868   7.4784   7.9319   8.1124   8.1828

     occupation numbers 
     1.0000   1.0000   1.0000   1.0000   1.0000   1.0000   1.0000   1.0000
     1.0000   1.0000   1.0000   1.0000   1.0000   1.0000   1.0000   1.0000

          k =-0.3992 0.2312-0.4061 (  2571 PWs)   bands (ev):

   -83.9545 -47.4819 -47.4290 -47.2939 -33.0530  -7.8692  -7.3123   1.8792
     4.1875   4.6019   5.2233   6.3523   7.3853   8.0200   8.0749   8.1882

     occupation numbers 
     1.0000   1.0000   1.0000   1.0000   1.0000   1.0000   1.0000   1.0000
     1.0000   1.0000   1.0000   1.0000   1.0000   1.0000   1.0000   1.0000

          k =-0.3992 0.2310-0.2977 (  2567 PWs)   bands (ev):

   -83.9544 -47.4820 -47.4290 -47.2939 -33.0517  -7.8262  -7.3639   1.8669
     4.2619   4.6779   5.1867   6.4028   7.2118   7.9448   8.0145   8.3801

     occupation numbers 
     1.0000   1.0000   1.0000   1.0000   1.0000   1.0000   1.0000   1.0000
     1.0000   1.0000   1.0000   1.0000   1.0000   1.0000   1.0000   1.0000

          k =-0.3992 0.2308-0.1893 (  2568 PWs)   bands (ev):

   -83.9544 -47.4820 -47.4290 -47.2939 -33.0502  -7.8678  -7.3190   1.8944
     3.9851   5.0395   5.1632   6.3851   7.1147   7.7466   8.1051   8.4902

     occupation numbers 
     1.0000   1.0000   1.0000   1.0000   1.0000   1.0000   1.0000   1.0000
     1.0000   1.0000   1.0000   1.0000   1.0000   1.0000   1.0000   1.0000

          k = 0.5322-0.3075 0.1078 (  2562 PWs)   bands (ev):

   -83.9542 -47.4930 -47.4317 -47.2919 -33.0434  -7.4835  -7.4036   1.5360
     4.0236   5.1031   5.1920   7.0553   7.2167   7.3763   7.4652   8.0428

     occupation numbers 
     1.0000   1.0000   1.0000   1.0000   1.0000   1.0000   1.0000   1.0000
     1.0000   1.0000   1.0000   1.0000   1.0000   1.0000   1.0000   1.0000

          k = 0.5322-0.3077 0.2162 (  2568 PWs)   bands (ev):

   -83.9542 -47.4930 -47.4317 -47.2919 -33.0445  -7.5007  -7.3832   1.5166
     4.0764   5.0739   5.1266   7.0621   7.2434   7.4090   7.4904   8.0134

     occupation numbers 
     1.0000   1.0000   1.0000   1.0000   1.0000   1.0000   1.0000   1.0000
     1.0000   1.0000   1.0000   1.0000   1.0000   1.0000   1.0000   1.0000

          k = 0.5322-0.3079 0.3246 (  2561 PWs)   bands (ev):

   -83.9542 -47.4930 -47.4317 -47.2919 -33.0467  -7.5233  -7.3541   1.4781
     4.2303   4.8037   5.1762   7.0872   7.2839   7.3752   7.6179   7.9602

     occupation numbers 
     1.0000   1.0000   1.0000   1.0000   1.0000   1.0000   1.0000   1.0000
     1.0000   1.0000   1.0000   1.0000   1.0000   1.0000   1.0000   1.0000

          k = 0.5322-0.3069-0.2174 (  2564 PWs)   bands (ev):

   -83.9542 -47.4930 -47.4317 -47.2919 -33.0478  -7.5320  -7.3421   1.4589
     4.4090   4.5728   5.2023   7.1256   7.1948   7.5423   7.5525   7.9541

     occupation numbers 
     1.0000   1.0000   1.0000   1.0000   1.0000   1.0000   1.0000   1.0000
     1.0000   1.0000   1.0000   1.0000   1.0000   1.0000   1.0000   1.0000

          k = 0.1331 0.0769-0.0270 (  2574 PWs)   bands (ev):

   -83.9604 -47.4251 -47.4154 -47.3029 -33.0814  -9.1112  -7.2871   2.0371
     3.8051   4.4130   6.5715   6.5771   7.8594   8.7336   8.9268   9.0040

     occupation numbers 
     1.0000   1.0000   1.0000   1.0000   1.0000   1.0000   1.0000   1.0000
     1.0000   1.0000   1.0000   1.0000   1.0000   1.0000   1.0000   1.0000

          k = 0.1331 0.0767 0.0815 (  2577 PWs)   bands (ev):

   -83.9605 -47.4251 -47.4154 -47.3029 -33.0811  -9.0975  -7.3148   2.1245
     3.7972   4.4054   6.5226   6.5973   7.8919   8.5304   8.9238   9.1042

     occupation numbers 
     1.0000   1.0000   1.0000   1.0000   1.0000   1.0000   1.0000   1.0000
     1.0000   1.0000   1.0000   1.0000   1.0000   1.0000   1.0000   1.0000

          k = 0.1331 0.0765 0.1899 (  2585 PWs)   bands (ev):

   -83.9606 -47.4251 -47.4154 -47.3029 -33.0794  -9.0406  -7.4247   2.4693
     3.7679   4.3980   6.4542   6.6355   7.8765   8.0786   8.8672   9.1834

     occupation numbers 
     1.0000   1.0000   1.0000   1.0000   1.0000   1.0000   1.0000   1.0000
     1.0000   1.0000   1.0000   1.0000   1.0000   1.0000   1.0000   1.0000

          k = 0.1330 0.0775-0.3522 (  2596 PWs)   bands (ev):

   -83.9606 -47.4251 -47.4154 -47.3029 -33.0781  -8.9941  -7.5093   2.7568
     3.7388   4.3981   6.4057   6.6541   7.7447   7.8922   8.8137   9.1946

     occupation numbers 
     1.0000   1.0000   1.0000   1.0000   1.0000   1.0000   1.0000   1.0000
     1.0000   1.0000   1.0000   1.0000   1.0000   1.0000   1.0000   1.0000

          k = 0.1330 0.0773-0.2438 (  2593 PWs)   bands (ev):

   -83.9606 -47.4251 -47.4154 -47.3029 -33.0785  -9.0105  -7.4797   2.6360
     3.7643   4.4057   6.4808   6.6330   7.6904   8.0100   8.8182   9.1908

     occupation numbers 
     1.0000   1.0000   1.0000   1.0000   1.0000   1.0000   1.0000   1.0000
     1.0000   1.0000   1.0000   1.0000   1.0000   1.0000   1.0000   1.0000

          k = 0.1330 0.0771-0.1354 (  2586 PWs)   bands (ev):

   -83.9605 -47.4251 -47.4154 -47.3029 -33.0801  -9.0703  -7.3677   2.2703
     3.7949   4.4132   6.5726   6.5942   7.7742   8.3560   8.8746   9.1416

     occupation numbers 
     1.0000   1.0000   1.0000   1.0000   1.0000   1.0000   1.0000   1.0000
     1.0000   1.0000   1.0000   1.0000   1.0000   1.0000   1.0000   1.0000

          k =-0.0000 0.1537-0.0539 (  2573 PWs)   bands (ev):

   -83.9605 -47.4250 -47.4154 -47.3029 -33.0813  -9.1062  -7.2973   2.0716
     3.8011   4.4076   6.5370   6.5893   7.8893   8.6302   8.9308   9.0655

     occupation numbers 
     1.0000   1.0000   1.0000   1.0000   1.0000   1.0000   1.0000   1.0000
     1.0000   1.0000   1.0000   1.0000   1.0000   1.0000   1.0000   1.0000

          k =-0.0000 0.1535 0.0545 (  2576 PWs)   bands (ev):

   -83.9605 -47.4250 -47.4154 -47.3029 -33.0812  -9.1055  -7.2986   2.0685
     3.8042   4.4139   6.5778   6.5784   7.8421   8.6638   8.9176   9.0396

     occupation numbers 
     1.0000   1.0000   1.0000   1.0000   1.0000   1.0000   1.0000   1.0000
     1.0000   1.0000   1.0000   1.0000   1.0000   1.0000   1.0000   1.0000

          k = 0.0000 0.1533 0.1629 (  2584 PWs)   bands (ev):

   -83.9605 -47.4251 -47.4154 -47.3029 -33.0797  -9.0548  -7.3975   2.3619
     3.7893   4.4118   6.5585   6.6032   7.7494   8.2517   8.8583   9.1621

     occupation numbers 
     1.0000   1.0000   1.0000   1.0000   1.0000   1.0000   1.0000   1.0000
     1.0000   1.0000   1.0000   1.0000   1.0000   1.0000   1.0000   1.0000

          k =-0.0000 0.1544-0.3791 (  2590 PWs)   bands (ev):

   -83.9606 -47.4251 -47.4154 -47.3029 -33.0782  -9.0001  -7.4984   2.7050
     3.7544   4.4034   6.4517   6.6414   7.6843   7.9606   8.8108   9.1936

     occupation numbers 
     1.0000   1.0000   1.0000   1.0000   1.0000   1.0000   1.0000   1.0000
     1.0000   1.0000   1.0000   1.0000   1.0000   1.0000   1.0000   1.0000

          k =-0.0000 0.1542-0.2707 (  2586 PWs)   bands (ev):

   -83.9606 -47.4251 -47.4154 -47.3029 -33.0783  -9.0010  -7.4970   2.7147
     3.7422   4.3972   6.4095   6.6530   7.7943   7.8912   8.8230   9.1938

     occupation numbers 
     1.0000   1.0000   1.0000   1.0000   1.0000   1.0000   1.0000   1.0000
     1.0000   1.0000   1.0000   1.0000   1.0000   1.0000   1.0000   1.0000

          k =-0.0000 0.1539-0.1623 (  2577 PWs)   bands (ev):

   -83.9605 -47.4251 -47.4154 -47.3029 -33.0799  -9.0565  -7.3948   2.3721
     3.7771   4.3993   6.4726   6.6263   7.8831   8.1886   8.8838   9.1735

     occupation numbers 
     1.0000   1.0000   1.0000   1.0000   1.0000   1.0000   1.0000   1.0000
     1.0000   1.0000   1.0000   1.0000   1.0000   1.0000   1.0000   1.0000

          k =-0.1331 0.2306-0.0809 (  2577 PWs)   bands (ev):

   -83.9573 -47.4444 -47.4219 -47.2997 -33.0704  -8.7361  -7.2600   2.6082
     3.2630   4.6265   5.9141   6.3881   7.4664   8.3957   8.8085   9.0738

     occupation numbers 
     1.0000   1.0000   1.0000   1.0000   1.0000   1.0000   1.0000   1.0000
     1.0000   1.0000   1.0000   1.0000   1.0000   1.0000   1.0000   1.0000

          k =-0.1331 0.2304 0.0276 (  2582 PWs)   bands (ev):

   -83.9573 -47.4444 -47.4219 -47.2997 -33.0706  -8.7515  -7.2338   2.5376
     3.2625   4.6342   5.9111   6.4070   7.4799   8.4959   8.7740   9.0531

     occupation numbers 
     1.0000   1.0000   1.0000   1.0000   1.0000   1.0000   1.0000   1.0000
     1.0000   1.0000   1.0000   1.0000   1.0000   1.0000   1.0000   1.0000

          k =-0.1331 0.2302 0.1360 (  2579 PWs)   bands (ev):

   -83.9573 -47.4444 -47.4219 -47.2998 -33.0700  -8.7083  -7.3064   2.7354
     3.2633   4.6133   5.9199   6.3476   7.4362   8.2907   8.8138   9.1019

     occupation numbers 
     1.0000   1.0000   1.0000   1.0000   1.0000   1.0000   1.0000   1.0000
     1.0000   1.0000   1.0000   1.0000   1.0000   1.0000   1.0000   1.0000

          k =-0.1331 0.2312-0.4061 (  2584 PWs)   bands (ev):

   -83.9574 -47.4444 -47.4219 -47.2998 -33.0692  -8.6426  -7.4113   3.0408
     3.2571   4.5872   5.9380   6.2124   7.3475   8.1946   8.7739   9.1109

     occupation numbers 
     1.0000   1.0000   1.0000   1.0000   1.0000   1.0000   1.0000   1.0000
     1.0000   1.0000   1.0000   1.0000   1.0000   1.0000   1.0000   1.0000

          k =-0.1331 0.2310-0.2977 (  2581 PWs)   bands (ev):

   -83.9574 -47.4444 -47.4219 -47.2998 -33.0690  -8.6234  -7.4409   3.1403
[...]
     1.0000   1.0000   1.0000   1.0000   1.0000   1.0000   1.0000   1.0000

          k = 0.7983-0.0004 0.2168 (  2563 PWs)   bands (ev):

   -83.9515 -47.4800 -47.4587 -47.2906 -33.0411  -7.3726  -7.3121   2.4119
     3.2674   4.1717   6.1894   6.4205   6.6542   7.0207   7.8919   8.3363

     occupation numbers 
     1.0000   1.0000   1.0000   1.0000   1.0000   1.0000   1.0000   1.0000
     1.0000   1.0000   1.0000   1.0000   1.0000   1.0000   1.0000   1.0000

          k = 0.7983 0.0006-0.3252 (  2564 PWs)   bands (ev):

   -83.9515 -47.4800 -47.4587 -47.2906 -33.0407  -7.3482  -7.3380   2.4257
     3.3021   4.1003   6.3596   6.3703   6.7609   6.8237   7.8798   8.3109

     occupation numbers 
     1.0000   1.0000   1.0000   1.0000   1.0000   1.0000   1.0000   1.0000
     1.0000   1.0000   1.0000   1.0000   1.0000   1.0000   1.0000   1.0000

          k = 0.7983 0.0004-0.2168 (  2563 PWs)   bands (ev):

   -83.9515 -47.4800 -47.4587 -47.2906 -33.0411  -7.3726  -7.3121   2.4119
     3.2674   4.1717   6.1894   6.4205   6.6542   7.0207   7.8920   8.3363

     occupation numbers 
     1.0000   1.0000   1.0000   1.0000   1.0000   1.0000   1.0000   1.0000
     1.0000   1.0000   1.0000   1.0000   1.0000   1.0000   1.0000   1.0000

          k = 0.7983 0.0002-0.1084 (  2559 PWs)   bands (ev):

   -83.9515 -47.4799 -47.4587 -47.2906 -33.0418  -7.3923  -7.2892   2.3806
     3.2229   4.2946   6.0351   6.2640   6.8096   7.0706   8.0000   8.3515

     occupation numbers 
     1.0000   1.0000   1.0000   1.0000   1.0000   1.0000   1.0000   1.0000
     1.0000   1.0000   1.0000   1.0000   1.0000   1.0000   1.0000   1.0000

          k = 0.6653 0.0769-0.0270 (  2564 PWs)   bands (ev):

   -83.9515 -47.4800 -47.4587 -47.2906 -33.0409  -7.3661  -7.3193   2.4178
     3.2805   4.1432   6.2348   6.4396   6.6479   6.9769   7.8833   8.3273

     occupation numbers 
     1.0000   1.0000   1.0000   1.0000   1.0000   1.0000   1.0000   1.0000
     1.0000   1.0000   1.0000   1.0000   1.0000   1.0000   1.0000   1.0000

          k = 0.6653 0.0767 0.0814 (  2561 PWs)   bands (ev):

   -83.9515 -47.4800 -47.4587 -47.2906 -33.0416  -7.3885  -7.2938   2.3885
     3.2313   4.2668   6.0658   6.3015   6.7664   7.0755   7.9643   8.3528

     occupation numbers 
     1.0000   1.0000   1.0000   1.0000   1.0000   1.0000   1.0000   1.0000
     1.0000   1.0000   1.0000   1.0000   1.0000   1.0000   1.0000   1.0000

          k = 0.6653 0.0765 0.1899 (  2565 PWs)   bands (ev):

   -83.9515 -47.4799 -47.4587 -47.2906 -33.0421  -7.3988  -7.2813   2.3649
     3.2100   4.3458   5.9873   6.1901   6.9179   7.0214   8.0904   8.3334

     occupation numbers 
     1.0000   1.0000   1.0000   1.0000   1.0000   1.0000   1.0000   1.0000
     1.0000   1.0000   1.0000   1.0000   1.0000   1.0000   1.0000   1.0000

          k = 0.6653 0.0775-0.3522 (  2557 PWs)   bands (ev):

   -83.9515 -47.4799 -47.4587 -47.2906 -33.0419  -7.3953  -7.2855   2.3737
     3.2167   4.3178   6.0119   6.2317   6.8507   7.0579   8.0361   8.3468

     occupation numbers 
     1.0000   1.0000   1.0000   1.0000   1.0000   1.0000   1.0000   1.0000
     1.0000   1.0000   1.0000   1.0000   1.0000   1.0000   1.0000   1.0000

          k = 0.6653 0.0773-0.2438 (  2563 PWs)   bands (ev):

   -83.9515 -47.4800 -47.4587 -47.2906 -33.0412  -7.3786  -7.3053   2.4047
     3.2541   4.2034   6.1448   6.3840   6.6836   7.0521   7.9081   8.3444

     occupation numbers 
     1.0000   1.0000   1.0000   1.0000   1.0000   1.0000   1.0000   1.0000
     1.0000   1.0000   1.0000   1.0000   1.0000   1.0000   1.0000   1.0000

          k = 0.6653 0.0771-0.1354 (  2557 PWs)   bands (ev):

   -83.9515 -47.4800 -47.4587 -47.2906 -33.0407  -7.3524  -7.3337   2.4248
     3.2994   4.1054   6.3232   6.4028   6.7226   6.8646   7.8796   8.3131

     occupation numbers 
     1.0000   1.0000   1.0000   1.0000   1.0000   1.0000   1.0000   1.0000
     1.0000   1.0000   1.0000   1.0000   1.0000   1.0000   1.0000   1.0000

          k = 0.5322 0.1537-0.0539 (  2561 PWs)   bands (ev):

   -83.9532 -47.4872 -47.4390 -47.2920 -33.0442  -7.6233  -7.2668   1.8932
     4.0008   4.1873   6.0091   6.4738   7.1770   7.2830   7.4947   8.4337

     occupation numbers 
     1.0000   1.0000   1.0000   1.0000   1.0000   1.0000   1.0000   1.0000
     1.0000   1.0000   1.0000   1.0000   1.0000   1.0000   1.0000   1.0000

          k = 0.5322 0.1535 0.0545 (  2564 PWs)   bands (ev):

   -83.9533 -47.4872 -47.4390 -47.2920 -33.0455  -7.6431  -7.2415   1.8736
     3.9277   4.2955   5.8561   6.4634   7.1637   7.3348   7.6296   8.4224

     occupation numbers 
     1.0000   1.0000   1.0000   1.0000   1.0000   1.0000   1.0000   1.0000
     1.0000   1.0000   1.0000   1.0000   1.0000   1.0000   1.0000   1.0000

          k = 0.5322 0.1533 0.1629 (  2570 PWs)   bands (ev):

   -83.9533 -47.4872 -47.4390 -47.2920 -33.0470  -7.6197  -7.2629   1.8322
     3.9050   4.4388   5.6723   6.4080   7.1261   7.4760   7.7816   8.3989

     occupation numbers 
     1.0000   1.0000   1.0000   1.0000   1.0000   1.0000   1.0000   1.0000
     1.0000   1.0000   1.0000   1.0000   1.0000   1.0000   1.0000   1.0000

          k = 0.5322 0.1544-0.3791 (  2568 PWs)   bands (ev):

   -83.9533 -47.4872 -47.4390 -47.2920 -33.0470  -7.5652  -7.3210   1.8117
     3.8980   4.5490   5.5926   6.3787   7.1386   7.4972   7.8485   8.3827

     occupation numbers 
     1.0000   1.0000   1.0000   1.0000   1.0000   1.0000   1.0000   1.0000
     1.0000   1.0000   1.0000   1.0000   1.0000   1.0000   1.0000   1.0000

          k = 0.5322 0.1542-0.2707 (  2562 PWs)   bands (ev):

   -83.9532 -47.4872 -47.4390 -47.2920 -33.0456  -7.5256  -7.3661   1.8311
     3.9297   4.4628   5.7311   6.3938   7.1782   7.3962   7.7746   8.3849

     occupation numbers 
     1.0000   1.0000   1.0000   1.0000   1.0000   1.0000   1.0000   1.0000
     1.0000   1.0000   1.0000   1.0000   1.0000   1.0000   1.0000   1.0000

          k = 0.5322 0.1540-0.1623 (  2562 PWs)   bands (ev):

   -83.9532 -47.4872 -47.4390 -47.2920 -33.0442  -7.5682  -7.3256   1.8712
     4.0079   4.2523   5.9542   6.4346   7.1941   7.2934   7.5886   8.4136

     occupation numbers 
     1.0000   1.0000   1.0000   1.0000   1.0000   1.0000   1.0000   1.0000
     1.0000   1.0000   1.0000   1.0000   1.0000   1.0000   1.0000   1.0000

          k =-0.5322-0.3075 0.1078 (  2562 PWs)   bands (ev):

   -83.9542 -47.4930 -47.4317 -47.2919 -33.0434  -7.4835  -7.4037   1.5360
     4.0236   5.1031   5.1920   7.0554   7.2167   7.3762   7.4652   8.0429

     occupation numbers 
     1.0000   1.0000   1.0000   1.0000   1.0000   1.0000   1.0000   1.0000
     1.0000   1.0000   1.0000   1.0000   1.0000   1.0000   1.0000   1.0000

          k =-0.5322-0.3077 0.2162 (  2569 PWs)   bands (ev):

   -83.9542 -47.4930 -47.4317 -47.2919 -33.0445  -7.5007  -7.3832   1.5166
     4.0764   5.0739   5.1266   7.0621   7.2434   7.4090   7.4903   8.0135

     occupation numbers 
     1.0000   1.0000   1.0000   1.0000   1.0000   1.0000   1.0000   1.0000
     1.0000   1.0000   1.0000   1.0000   1.0000   1.0000   1.0000   1.0000

          k =-0.5322-0.3079 0.3246 (  2561 PWs)   bands (ev):

   -83.9542 -47.4930 -47.4317 -47.2919 -33.0467  -7.5233  -7.3541   1.4781
     4.2303   4.8037   5.1762   7.0872   7.2839   7.3752   7.6179   7.9602

     occupation numbers 
     1.0000   1.0000   1.0000   1.0000   1.0000   1.0000   1.0000   1.0000
     1.0000   1.0000   1.0000   1.0000   1.0000   1.0000   1.0000   1.0000

          k =-0.5322-0.3069-0.2174 (  2564 PWs)   bands (ev):

   -83.9542 -47.4930 -47.4317 -47.2919 -33.0478  -7.5320  -7.3421   1.4589
     4.4090   4.5728   5.2024   7.1256   7.1949   7.5423   7.5526   7.9541

     occupation numbers 
     1.0000   1.0000   1.0000   1.0000   1.0000   1.0000   1.0000   1.0000
     1.0000   1.0000   1.0000   1.0000   1.0000   1.0000   1.0000   1.0000

          k =-0.6653-0.2306 0.0809 (  2561 PWs)   bands (ev):

   -83.9532 -47.4872 -47.4390 -47.2920 -33.0440  -7.5838  -7.3095   1.8798
     4.0257   4.2077   5.9909   6.4473   7.1768   7.2990   7.5428   8.4210

     occupation numbers 
     1.0000   1.0000   1.0000   1.0000   1.0000   1.0000   1.0000   1.0000
     1.0000   1.0000   1.0000   1.0000   1.0000   1.0000   1.0000   1.0000

          k =-0.6653-0.2308 0.1893 (  2565 PWs)   bands (ev):

   -83.9532 -47.4872 -47.4390 -47.2920 -33.0444  -7.6323  -7.2564   1.8922
     3.9768   4.2098   5.9843   6.4765   7.1980   7.2601   7.5171   8.4337

     occupation numbers 
     1.0000   1.0000   1.0000   1.0000   1.0000   1.0000   1.0000   1.0000
     1.0000   1.0000   1.0000   1.0000   1.0000   1.0000   1.0000   1.0000

          k =-0.6653-0.2310 0.2977 (  2567 PWs)   bands (ev):

   -83.9533 -47.4872 -47.4390 -47.2920 -33.0460  -7.6411  -7.2424   1.8636
     3.9194   4.3283   5.8068   6.4517   7.1474   7.3767   7.6712   8.4164

     occupation numbers 
     1.0000   1.0000   1.0000   1.0000   1.0000   1.0000   1.0000   1.0000
     1.0000   1.0000   1.0000   1.0000   1.0000   1.0000   1.0000   1.0000

          k =-0.6653-0.2300-0.2444 (  2567 PWs)   bands (ev):

   -83.9533 -47.4872 -47.4390 -47.2920 -33.0471  -7.6080  -7.2750   1.8237
     3.9015   4.4761   5.6373   6.3957   7.1260   7.4945   7.8088   8.3940

     occupation numbers 
     1.0000   1.0000   1.0000   1.0000   1.0000   1.0000   1.0000   1.0000
     1.0000   1.0000   1.0000   1.0000   1.0000   1.0000   1.0000   1.0000

          k =-0.6653-0.2302-0.1359 (  2565 PWs)   bands (ev):

   -83.9533 -47.4872 -47.4390 -47.2920 -33.0468  -7.5505  -7.3371   1.8129
     3.9010   4.5488   5.6061   6.3794   7.1462   7.4813   7.8446   8.3805

     occupation numbers 
     1.0000   1.0000   1.0000   1.0000   1.0000   1.0000   1.0000   1.0000
     1.0000   1.0000   1.0000   1.0000   1.0000   1.0000   1.0000   1.0000

          k =-0.6653-0.2304-0.0275 (  2554 PWs)   bands (ev):

   -83.9532 -47.4872 -47.4390 -47.2920 -33.0452  -7.5294  -7.3634   1.8406
     3.9461   4.4136   5.7899   6.4016   7.1906   7.3603   7.7341   8.3905

     occupation numbers 
     1.0000   1.0000   1.0000   1.0000   1.0000   1.0000   1.0000   1.0000
     1.0000   1.0000   1.0000   1.0000   1.0000   1.0000   1.0000   1.0000

          k =-0.7983-0.1537 0.0539 (  2560 PWs)   bands (ev):

   -83.9523 -47.4788 -47.4490 -47.2920 -33.0456  -7.6512  -7.2443   2.4450
     3.3488   4.2377   5.9395   6.2201   7.0927   7.3478   7.7368   8.6760

     occupation numbers 
     1.0000   1.0000   1.0000   1.0000   1.0000   1.0000   1.0000   1.0000
     1.0000   1.0000   1.0000   1.0000   1.0000   1.0000   1.0000   1.0000

          k =-0.7983-0.1540 0.1623 (  2563 PWs)   bands (ev):

   -83.9523 -47.4788 -47.4489 -47.2920 -33.0450  -7.6907  -7.2025   2.4824
     3.4200   4.0455   6.0380   6.4083   7.1010   7.2167   7.5343   8.6722

     occupation numbers 
     1.0000   1.0000   1.0000   1.0000   1.0000   1.0000   1.0000   1.0000
     1.0000   1.0000   1.0000   1.0000   1.0000   1.0000   1.0000   1.0000

          k =-0.7983-0.1542 0.2707 (  2563 PWs)   bands (ev):

   -83.9523 -47.4788 -47.4489 -47.2920 -33.0450  -7.6907  -7.2025   2.4824
     3.4200   4.0455   6.0381   6.4083   7.1010   7.2167   7.5344   8.6722

     occupation numbers 
     1.0000   1.0000   1.0000   1.0000   1.0000   1.0000   1.0000   1.0000
     1.0000   1.0000   1.0000   1.0000   1.0000   1.0000   1.0000   1.0000

          k =-0.7983-0.1531-0.2713 (  2560 PWs)   bands (ev):

   -83.9523 -47.4788 -47.4490 -47.2920 -33.0456  -7.6512  -7.2443   2.4449
     3.3489   4.2378   5.9396   6.2201   7.0927   7.3477   7.7369   8.6759

     occupation numbers 
     1.0000   1.0000   1.0000   1.0000   1.0000   1.0000   1.0000   1.0000
     1.0000   1.0000   1.0000   1.0000   1.0000   1.0000   1.0000   1.0000

          k =-0.7983-0.1533-0.1629 (  2563 PWs)   bands (ev):

   -83.9523 -47.4788 -47.4490 -47.2920 -33.0462  -7.6021  -7.2956   2.4153
     3.2685   4.4747   5.8836   5.9737   7.1104   7.4715   7.8765   8.6996

     occupation numbers 
     1.0000   1.0000   1.0000   1.0000   1.0000   1.0000   1.0000   1.0000
     1.0000   1.0000   1.0000   1.0000   1.0000   1.0000   1.0000   1.0000

          k =-0.7983-0.1535-0.0545 (  2563 PWs)   bands (ev):

   -83.9523 -47.4788 -47.4490 -47.2920 -33.0462  -7.6021  -7.2956   2.4153
     3.2684   4.4747   5.8835   5.9737   7.1104   7.4715   7.8764   8.6997

     occupation numbers 
     1.0000   1.0000   1.0000   1.0000   1.0000   1.0000   1.0000   1.0000
     1.0000   1.0000   1.0000   1.0000   1.0000   1.0000   1.0000   1.0000

          k =-0.9314-0.0769 0.0270 (  2567 PWs)   bands (ev):

   -83.9533 -47.4872 -47.4390 -47.2920 -33.0471  -7.6080  -7.2750   1.8237
     3.9015   4.4760   5.6373   6.3957   7.1260   7.4945   7.8088   8.3941

     occupation numbers 
     1.0000   1.0000   1.0000   1.0000   1.0000   1.0000   1.0000   1.0000
     1.0000   1.0000   1.0000   1.0000   1.0000   1.0000   1.0000   1.0000

          k =-0.9314-0.0771 0.1354 (  2567 PWs)   bands (ev):

   -83.9533 -47.4872 -47.4390 -47.2920 -33.0460  -7.6411  -7.2424   1.8636
     3.9194   4.3282   5.8068   6.4517   7.1474   7.3768   7.6712   8.4165

     occupation numbers 
     1.0000   1.0000   1.0000   1.0000   1.0000   1.0000   1.0000   1.0000
     1.0000   1.0000   1.0000   1.0000   1.0000   1.0000   1.0000   1.0000

          k =-0.9314-0.0773 0.2438 (  2565 PWs)   bands (ev):

   -83.9532 -47.4872 -47.4390 -47.2920 -33.0444  -7.6323  -7.2564   1.8922
     3.9768   4.2098   5.9843   6.4765   7.1980   7.2601   7.5172   8.4337

     occupation numbers 
     1.0000   1.0000   1.0000   1.0000   1.0000   1.0000   1.0000   1.0000
     1.0000   1.0000   1.0000   1.0000   1.0000   1.0000   1.0000   1.0000

          k =-0.9314-0.0763-0.2983 (  2561 PWs)   bands (ev):

   -83.9532 -47.4872 -47.4390 -47.2920 -33.0440  -7.5838  -7.3095   1.8798
     4.0258   4.2076   5.9908   6.4474   7.1768   7.2990   7.5429   8.4209

     occupation numbers 
     1.0000   1.0000   1.0000   1.0000   1.0000   1.0000   1.0000   1.0000
     1.0000   1.0000   1.0000   1.0000   1.0000   1.0000   1.0000   1.0000

          k =-0.9314-0.0765-0.1898 (  2554 PWs)   bands (ev):

   -83.9532 -47.4872 -47.4390 -47.2920 -33.0452  -7.5294  -7.3634   1.8406
     3.9461   4.4136   5.7898   6.4017   7.1906   7.3603   7.7342   8.3904

     occupation numbers 
     1.0000   1.0000   1.0000   1.0000   1.0000   1.0000   1.0000   1.0000
     1.0000   1.0000   1.0000   1.0000   1.0000   1.0000   1.0000   1.0000

          k =-0.9314-0.0767-0.0814 (  2565 PWs)   bands (ev):

   -83.9533 -47.4872 -47.4390 -47.2920 -33.0468  -7.5505  -7.3371   1.8129
     3.9011   4.5488   5.6061   6.3794   7.1462   7.4813   7.8446   8.3805

     occupation numbers 
     1.0000   1.0000   1.0000   1.0000   1.0000   1.0000   1.0000   1.0000
     1.0000   1.0000   1.0000   1.0000   1.0000   1.0000   1.0000   1.0000

          k = 0.0000-0.6150 0.2156 (  2568 PWs)   bands (ev):

   -83.9542 -47.4930 -47.4317 -47.2919 -33.0478  -7.5320  -7.3421   1.4589
     4.4090   4.5728   5.2023   7.1256   7.1948   7.5423   7.5524   7.9542

     occupation numbers 
     1.0000   1.0000   1.0000   1.0000   1.0000   1.0000   1.0000   1.0000
     1.0000   1.0000   1.0000   1.0000   1.0000   1.0000   1.0000   1.0000

          k = 0.0000-0.6152 0.3240 (  2561 PWs)   bands (ev):

   -83.9542 -47.4930 -47.4317 -47.2919 -33.0467  -7.5233  -7.3541   1.4781
     4.2303   4.8037   5.1762   7.0872   7.2839   7.3751   7.6179   7.9602

     occupation numbers 
     1.0000   1.0000   1.0000   1.0000   1.0000   1.0000   1.0000   1.0000
     1.0000   1.0000   1.0000   1.0000   1.0000   1.0000   1.0000   1.0000

          k = 0.0000-0.6154 0.4324 (  2567 PWs)   bands (ev):

   -83.9542 -47.4930 -47.4317 -47.2919 -33.0445  -7.5007  -7.3832   1.5166
     4.0764   5.0738   5.1266   7.0621   7.2433   7.4090   7.4905   8.0134

     occupation numbers 
     1.0000   1.0000   1.0000   1.0000   1.0000   1.0000   1.0000   1.0000
     1.0000   1.0000   1.0000   1.0000   1.0000   1.0000   1.0000   1.0000

          k = 0.0000-0.6143-0.1096 (  2562 PWs)   bands (ev):

   -83.9542 -47.4930 -47.4317 -47.2919 -33.0434  -7.4835  -7.4036   1.5360
     4.0237   5.1031   5.1919   7.0553   7.2167   7.3764   7.4652   8.0428

     occupation numbers 
     1.0000   1.0000   1.0000   1.0000   1.0000   1.0000   1.0000   1.0000
     1.0000   1.0000   1.0000   1.0000   1.0000   1.0000   1.0000   1.0000

!    total energy              =    -379.56980144 Ry
     Harris-Foulkes estimate   =    -379.56980144 Ry
     estimated scf accuracy    <          2.9E-13 Ry

     The total energy is the sum of the following terms:

     one-electron contribution =    -259.68309402 Ry
     hartree contribution      =     146.17382396 Ry
     xc contribution           =     -53.24165883 Ry
     ewald contribution        =    -213.15046815 Ry
     Hubbard energy            =       0.33159559 Ry

     convergence has been achieved in  24 iterations

     Writing output data file LiCoO2.save
 
     init_run     :      5.67s CPU      5.95s WALL (       1 calls)
     electrons    :    194.50s CPU    201.61s WALL (       1 calls)

     Called by init_run:
     wfcinit      :      3.94s CPU      4.15s WALL (       1 calls)
     potinit      :      0.46s CPU      0.46s WALL (       1 calls)

     Called by electrons:
     c_bands      :    159.64s CPU    164.73s WALL (      24 calls)
     sum_band     :     29.34s CPU     31.08s WALL (      24 calls)
     v_of_rho     :      0.93s CPU      0.96s WALL (      25 calls)
     v_h          :      0.06s CPU      0.06s WALL (      25 calls)
     v_xc         :      0.87s CPU      0.89s WALL (      25 calls)
     newd         :      4.18s CPU      4.24s WALL (      25 calls)
     mix_rho      :      0.12s CPU      0.13s WALL (      24 calls)

     Called by c_bands:
     init_us_2    :      3.49s CPU      3.58s WALL (    9800 calls)
     cegterg      :    149.02s CPU    153.22s WALL (    4704 calls)

     Called by sum_band:
     sum_band:bec :      0.08s CPU      0.19s WALL (    4704 calls)
     addusdens    :      2.96s CPU      3.04s WALL (      24 calls)

     Called by *egterg:
     h_psi        :    110.15s CPU    113.31s WALL (   18787 calls)
     s_psi        :      5.30s CPU      5.00s WALL (   18983 calls)
     g_psi        :      0.68s CPU      0.84s WALL (   13887 calls)
     cdiaghg      :     17.18s CPU     17.29s WALL (   18591 calls)
     cegterg:over :      6.57s CPU      6.66s WALL (   13887 calls)
     cegterg:upda :      4.38s CPU      4.48s WALL (   13887 calls)
     cegterg:last :      2.05s CPU      2.06s WALL (    4757 calls)

     Called by h_psi:
     h_psi:vloc   :     92.57s CPU     95.05s WALL (   18787 calls)
     h_psi:vnl    :     12.07s CPU     12.11s WALL (   18787 calls)
     add_vuspsi   :      5.00s CPU      5.14s WALL (   18787 calls)
     vhpsi        :      5.23s CPU      5.56s WALL (   18787 calls)

     General routines
     calbec       :     14.67s CPU     14.90s WALL (   47178 calls)
     fft          :      0.71s CPU      0.73s WALL (     396 calls)
     ffts         :      0.02s CPU      0.02s WALL (      49 calls)
     fftw         :     71.82s CPU     80.20s WALL (  484752 calls)
     interpolate  :      0.12s CPU      0.12s WALL (      49 calls)
     davcio       :      2.32s CPU      2.73s WALL (   29008 calls)
 
     Parallel routines
     fft_scatter  :     40.93s CPU     39.81s WALL (  485197 calls)
     Hubbard U routines
     new_ns       :      0.99s CPU      1.91s WALL (      24 calls)
     vhpsi        :      5.23s CPU      5.56s WALL (   18787 calls)
 
     PWSCF        :  3m20.86s CPU     3m28.38s WALL

 
   This run was terminated on:   9:52:45  29Aug2016            

=------------------------------------------------------------------------------=
   JOB DONE.
=------------------------------------------------------------------------------=
